
     Program PWSCF v.5.1.2 starts on 24Apr2015 at  6:13:29 

     This program is part of the open-source Quantum ESPRESSO suite
     for quantum simulation of materials; please cite
         "P. Giannozzi et al., J. Phys.:Condens. Matter 21 395502 (2009);
          URL http://www.quantum-espresso.org", 
     in publications or presentations arising from this work. More details at
     http://www.quantum-espresso.org/quote

     Parallel version (MPI), running on   192 processors
     K-points division:     npool     =       8
     R & G space division:  proc/nbgrp/npool/nimage =      24
     Reading input from aiida.in

     Current dimensions of program PWSCF are:
     Max number of different atomic species (ntypx) = 50
     Max number of k-points (npk) =  40000
     Max angular momentum in pseudopotentials (lmaxx) =  3

     Subspace diagonalization in iterative solution of the eigenvalue problem:
     scalapack distributed-memory algorithm (size of sub-group:  3*  3 procs)

 
     Parallelization info
     --------------------
     sticks:   dense  smooth     PW     G-vecs:    dense   smooth      PW
     Min          54      54     15                11956    11956    1779
     Max          55      55     16                11996    11996    1814
     Sum        1303    1303    367               287543   287543   42985
 
     Generating pointlists ...
     new r_m :   0.0711 (alat units)  0.8961 (a.u.) for type    1
     new r_m :   0.1102 (alat units)  1.3888 (a.u.) for type    2
     new r_m :   0.1661 (alat units)  2.0926 (a.u.) for type    3
     new r_m :   0.0723 (alat units)  0.9112 (a.u.) for type    4
     new r_m :   0.0711 (alat units)  0.8961 (a.u.) for type    5


     bravais-lattice index     =            0
     lattice parameter (alat)  =      12.5990  a.u.
     unit-cell volume          =   12973.7557 (a.u.)^3
     number of atoms/cell      =           28
     number of atomic types    =            5
     number of electrons       =       164.00
     number of Kohn-Sham states=           98
     kinetic-energy cutoff     =      30.0000  Ry
     charge density cutoff     =     120.0000  Ry
     convergence threshold     =      1.0E-10
     mixing beta               =       0.7000
     number of iterations used =            8  plain     mixing
     Exchange-correlation      = SLA  PW   PSX  PSC ( 1  4 10  8 0 0)
     nstep                     =           50


     celldm(1)=  12.598970  celldm(2)=   0.000000  celldm(3)=   0.000000
     celldm(4)=   0.000000  celldm(5)=   0.000000  celldm(6)=   0.000000

     crystal axes: (cart. coord. in units of alat)
               a(1) = (   1.000000   0.000000   0.000000 )  
               a(2) = (  -0.500000   0.866025   0.000000 )  
               a(3) = (   0.000000   0.000000   7.490831 )  

     reciprocal axes: (cart. coord. in units 2 pi/alat)
               b(1) = (  1.000000  0.577350  0.000000 )  
               b(2) = (  0.000000  1.154701  0.000000 )  
               b(3) = (  0.000000  0.000000  0.133497 )  


     PseudoPot. # 1 for C  read from file:
     ./pseudo/c_pbesol_v1.2.uspp.F.UPF
     MD5 check sum: 8d40f609cfc95820001c5638b62dae31
     Pseudo is Ultrasoft + core correction, Zval =  4.0
     Generated by new atomic code, or converted to UPF format
     Using radial grid of  721 points,  4 beta functions with: 
                l(1) =   0
                l(2) =   0
                l(3) =   1
                l(4) =   1
     Q(r) pseudized with  8 coefficients,  rinner =    1.100   1.100   1.100


     PseudoPot. # 2 for Fe read from file:
     ./pseudo/fe_pbesol_v1.2.uspp.F.UPF
     MD5 check sum: ad15aac8abc4a8c9b3d5b094adb79fd6
     Pseudo is Ultrasoft + core correction, Zval = 16.0
     Generated by new atomic code, or converted to UPF format
     Using radial grid of  861 points,  6 beta functions with: 
                l(1) =   0
                l(2) =   0
                l(3) =   1
                l(4) =   1
                l(5) =   2
                l(6) =   2
     Q(r) pseudized with  8 coefficients,  rinner =    1.200   1.200   1.200
                                                       1.200   1.200

     PseudoPot. # 3 for K  read from file:
     ./pseudo/k_pbesol_v1.uspp.F.UPF
     MD5 check sum: a6be1437324d23b3cc018d7eb7f69b12
     Pseudo is Ultrasoft + core correction, Zval =  9.0
     Generated by new atomic code, or converted to UPF format
     Using radial grid of  841 points,  6 beta functions with: 
                l(1) =   0
                l(2) =   0
                l(3) =   1
                l(4) =   1
                l(5) =   2
                l(6) =   2
     Q(r) pseudized with  8 coefficients,  rinner =    1.200   1.200   1.200
                                                       1.200   1.200

     PseudoPot. # 4 for N  read from file:
     ./pseudo/n_pbesol_v1.2.uspp.F.UPF
     MD5 check sum: 63fe17a113022154a41c914ff754efac
     Pseudo is Ultrasoft + core correction, Zval =  5.0
     Generated by new atomic code, or converted to UPF format
     Using radial grid of  729 points,  4 beta functions with: 
                l(1) =   0
                l(2) =   0
                l(3) =   1
                l(4) =   1
     Q(r) pseudized with  8 coefficients,  rinner =    0.900   0.900   0.900


     PseudoPot. # 5 for O  read from file:
     ./pseudo/o_pbesol_v1.2.uspp.F.UPF
     MD5 check sum: 501638753501ef6325af9037351f7734
     Pseudo is Ultrasoft + core correction, Zval =  6.0
     Generated by new atomic code, or converted to UPF format
     Using radial grid of  737 points,  5 beta functions with: 
                l(1) =   0
                l(2) =   0
                l(3) =   1
                l(4) =   1
                l(5) =   2
     Q(r) pseudized with  8 coefficients,  rinner =    0.900   0.900   0.900
                                                       0.900   0.900

     atomic species   valence    mass     pseudopotential
        C              4.00    12.01100     C ( 1.00)
        Fe            16.00    55.84700     Fe( 1.00)
        K              9.00    39.09830     K ( 1.00)
        N              5.00    14.00670     N ( 1.00)
        O              6.00    15.99940     O ( 1.00)

     Starting magnetic structure 
     atomic species   magnetization
        C            0.480
        Fe          -0.950
        K            0.540
        N           -0.540
        O            0.670

      6 Sym. Ops., with inversion, found ( 3 have fractional translation)


                                    s                        frac. trans.

      isym =  1     identity                                     

 cryst.   s( 1) = (     1          0          0      )
                  (     0          1          0      )
                  (     0          0          1      )

 cart.    s( 1) = (  1.0000000  0.0000000  0.0000000 )
                  (  0.0000000  1.0000000  0.0000000 )
                  (  0.0000000  0.0000000  1.0000000 )


      isym =  2     120 deg rotation - cryst. axis [0,0,1]       

 cryst.   s( 2) = (     0          1          0      )
                  (    -1         -1          0      )
                  (     0          0          1      )

 cart.    s( 2) = ( -0.5000000 -0.8660254  0.0000000 )
                  (  0.8660254 -0.5000000  0.0000000 )
                  (  0.0000000  0.0000000  1.0000000 )


      isym =  3     120 deg rotation - cryst. axis [0,0,-1]      

 cryst.   s( 3) = (    -1         -1          0      )
                  (     1          0          0      )
                  (     0          0          1      )

 cart.    s( 3) = ( -0.5000000  0.8660254  0.0000000 )
                  ( -0.8660254 -0.5000000  0.0000000 )
                  (  0.0000000  0.0000000  1.0000000 )


      isym =  4     inversion                                    

 cryst.   s( 4) = (    -1          0          0      )    f =(  0.3333333 )
                  (     0         -1          0      )       ( -0.3333333 )
                  (     0          0         -1      )       (  0.0000000 )

 cart.    s( 4) = ( -1.0000000  0.0000000  0.0000000 )    f =(  0.5000000 )
                  (  0.0000000 -1.0000000  0.0000000 )       ( -0.2886751 )
                  (  0.0000000  0.0000000 -1.0000000 )       (  0.0000000 )


      isym =  5     inv. 120 deg rotation - cryst. axis [0,0,1]  

 cryst.   s( 5) = (     0         -1          0      )    f =(  0.3333333 )
                  (     1          1          0      )       ( -0.3333333 )
                  (     0          0         -1      )       (  0.0000000 )

 cart.    s( 5) = (  0.5000000  0.8660254  0.0000000 )    f =(  0.5000000 )
                  ( -0.8660254  0.5000000  0.0000000 )       ( -0.2886751 )
                  (  0.0000000  0.0000000 -1.0000000 )       (  0.0000000 )


      isym =  6     inv. 120 deg rotation - cryst. axis [0,0,-1] 

 cryst.   s( 6) = (     1          1          0      )    f =(  0.3333333 )
                  (    -1          0          0      )       ( -0.3333333 )
                  (     0          0         -1      )       (  0.0000000 )

 cart.    s( 6) = (  0.5000000 -0.8660254  0.0000000 )    f =(  0.5000000 )
                  (  0.8660254  0.5000000  0.0000000 )       ( -0.2886751 )
                  (  0.0000000  0.0000000 -1.0000000 )       (  0.0000000 )


     point group S_6 (-3)   
     there are  6 classes
     the character table:

       E     C3    C3^2  i     S6^5  S6   
A_g    1.00  1.00  1.00  1.00  1.00  1.00
E_g    1.00 -0.50 -0.50  1.00 -0.50 -0.50
E_g*   1.00 -0.50 -0.50  1.00 -0.50 -0.50
A_u    1.00  1.00  1.00 -1.00 -1.00 -1.00
E_u    1.00 -0.50 -0.50 -1.00  0.50  0.50
E_u*   1.00 -0.50 -0.50 -1.00  0.50  0.50
     imaginary part
A_g    0.00  0.00  0.00  0.00  0.00  0.00
E_g    0.00  0.87 -0.87  0.00  0.87 -0.87
E_g*   0.00 -0.87  0.87  0.00 -0.87  0.87
A_u    0.00  0.00  0.00  0.00  0.00  0.00
E_u    0.00  0.87 -0.87  0.00 -0.87  0.87
E_u*   0.00 -0.87  0.87  0.00  0.87 -0.87

     the symmetry operations in each class and the name of the first element:

     E        1
                                                                 
     C3       2
                                                                 
     C3^2     3
                                                                 
     i        4
                                                                 
     S6^5     5
                                                                 
     S6       6
                                                                 

   Cartesian axes

     site n.     atom                  positions (alat units)
         1           O   tau(   1) = (   0.8045068   0.2523329   2.9900226  )
         2           O   tau(   2) = (   0.6954932   0.0363422   4.5008084  )
         3           O   tau(   3) = (   0.6207801   0.5841437   4.5008084  )
         4           O   tau(   4) = (   0.3792199   0.5705568   2.9900226  )
         5           O   tau(   5) = (   0.3162733   0.0431356   2.9900226  )
         6           O   tau(   6) = (   0.1837267   0.2455395   4.5008084  )
         7           N   tau(   7) = (   0.8198717   0.2694771   3.9899454  )
         8           N   tau(   8) = (   0.6801283   0.0191981   3.5008856  )
         9           N   tau(   9) = (   0.6433098   0.5794094   3.5008856  )
        10           N   tau(  10) = (   0.3566902   0.5752912   3.9899454  )
        11           N   tau(  11) = (   0.3234381   0.0212572   3.9899454  )
        12           N   tau(  12) = (   0.1765619   0.2674180   3.5008856  )
        13           K   tau(  13) = (   1.0000000   0.0000000   3.7510685  )
        14           K   tau(  14) = (   0.5000000   0.2886751   3.7397625  )
        15           Fe  tau(  15) = (   1.0000000   0.5773503   4.2785211  )
        16           Fe  tau(  16) = (   1.0000000   0.5773503   3.2123099  )
        17           C   tau(  17) = (   1.2295124   0.5734675   3.0754993  )
        18           C   tau(  18) = (   1.2207946   0.5754110   4.1007349  )
        19           C   tau(  19) = (   1.1181188   0.7741725   4.4153317  )
        20           C   tau(  20) = (   1.1120768   0.7675943   3.3900961  )
        21           C   tau(  21) = (   1.1113936   0.3766453   4.4153317  )
        22           C   tau(  22) = (   1.1087178   0.3851669   3.3900961  )
        23           C   tau(  23) = (   0.8912822   0.7695337   4.1007349  )
        24           C   tau(  24) = (   0.8886064   0.7780552   3.0754993  )
        25           C   tau(  25) = (   0.8879232   0.3871062   4.1007349  )
        26           C   tau(  26) = (   0.8818812   0.3805281   3.0754993  )
        27           C   tau(  27) = (   0.7792054   0.5792896   3.3900961  )
        28           C   tau(  28) = (   0.7704876   0.5812330   4.4153317  )

   Crystallographic axes

     site n.     atom                  positions (cryst. coord.)
         1           O   tau(   1) = (  0.9501913  0.2913690  0.3991577  )
         2           O   tau(   2) = (  0.7164754  0.0419644  0.6008423  )
         3           O   tau(   3) = (  0.9580356  0.6745110  0.6008423  )
         4           O   tau(   4) = (  0.7086310  0.6588223  0.3991577  )
         5           O   tau(   5) = (  0.3411777  0.0498087  0.3991577  )
         6           O   tau(   6) = (  0.3254890  0.2835246  0.6008423  )
         7           N   tau(   7) = (  0.9754543  0.3111653  0.5326439  )
         8           N   tau(   8) = (  0.6912123  0.0221680  0.4673561  )
         9           N   tau(   9) = (  0.9778320  0.6690443  0.4673561  )
        10           N   tau(  10) = (  0.6888347  0.6642890  0.5326439  )
        11           N   tau(  11) = (  0.3357110  0.0245457  0.5326439  )
        12           N   tau(  12) = (  0.3309557  0.3087877  0.4673561  )
        13           K   tau(  13) = (  1.0000000  0.0000000  0.5007547  )
        14           K   tau(  14) = (  0.6666667  0.3333333  0.4992453  )
        15           Fe  tau(  15) = (  1.3333333  0.6666667  0.5711677  )
        16           Fe  tau(  16) = (  1.3333333  0.6666667  0.4288323  )
        17           C   tau(  17) = (  1.5606040  0.6621832  0.4105685  )
        18           C   tau(  18) = (  1.5530083  0.6644274  0.5474339  )
        19           C   tau(  19) = (  1.5650875  0.8939374  0.5894315  )
        20           C   tau(  20) = (  1.5552476  0.8863416  0.4525661  )
        21           C   tau(  21) = (  1.3288499  0.4349125  0.5894315  )
        22           C   tau(  22) = (  1.3310940  0.4447524  0.4525661  )
        23           C   tau(  23) = (  1.3355726  0.8885809  0.5474339  )
        24           C   tau(  24) = (  1.3378168  0.8984208  0.4105685  )
        25           C   tau(  25) = (  1.1114191  0.4469917  0.5474339  )
        26           C   tau(  26) = (  1.1015792  0.4393960  0.4105685  )
        27           C   tau(  27) = (  1.1136584  0.6689060  0.4525661  )
        28           C   tau(  28) = (  1.1060626  0.6711501  0.5894315  )

     number of k points=    16  gaussian smearing, width (Ry)=  0.0200
                       cart. coord. in units 2pi/alat
        k(    1) = (   0.0000000   0.0000000   0.0000000), wk =   0.0277778
        k(    2) = (   0.0000000   0.1924501   0.0000000), wk =   0.1666667
        k(    3) = (   0.0000000   0.3849002   0.0000000), wk =   0.1666667
        k(    4) = (   0.0000000  -0.5773503   0.0000000), wk =   0.0833333
        k(    5) = (   0.1666667   0.2886751   0.0000000), wk =   0.1666667
        k(    6) = (   0.1666667   0.4811252   0.0000000), wk =   0.1666667
        k(    7) = (   0.3333333   0.5773503   0.0000000), wk =   0.0555556
        k(    8) = (  -0.1666667   0.4811252   0.0000000), wk =   0.1666667
        k(    9) = (   0.0000000   0.0000000   0.0000000), wk =   0.0277778
        k(   10) = (   0.0000000   0.1924501   0.0000000), wk =   0.1666667
        k(   11) = (   0.0000000   0.3849002   0.0000000), wk =   0.1666667
        k(   12) = (   0.0000000  -0.5773503   0.0000000), wk =   0.0833333
        k(   13) = (   0.1666667   0.2886751   0.0000000), wk =   0.1666667
        k(   14) = (   0.1666667   0.4811252   0.0000000), wk =   0.1666667
        k(   15) = (   0.3333333   0.5773503   0.0000000), wk =   0.0555556
        k(   16) = (  -0.1666667   0.4811252   0.0000000), wk =   0.1666667

                       cryst. coord.
        k(    1) = (   0.0000000   0.0000000   0.0000000), wk =   0.0277778
        k(    2) = (   0.0000000   0.1666667   0.0000000), wk =   0.1666667
        k(    3) = (   0.0000000   0.3333333   0.0000000), wk =   0.1666667
        k(    4) = (   0.0000000  -0.5000000   0.0000000), wk =   0.0833333
        k(    5) = (   0.1666667   0.1666667   0.0000000), wk =   0.1666667
        k(    6) = (   0.1666667   0.3333333   0.0000000), wk =   0.1666667
        k(    7) = (   0.3333333   0.3333333   0.0000000), wk =   0.0555556
        k(    8) = (  -0.1666667   0.5000000   0.0000000), wk =   0.1666667
        k(    9) = (   0.0000000   0.0000000   0.0000000), wk =   0.0277778
        k(   10) = (   0.0000000   0.1666667   0.0000000), wk =   0.1666667
        k(   11) = (   0.0000000   0.3333333   0.0000000), wk =   0.1666667
        k(   12) = (   0.0000000  -0.5000000   0.0000000), wk =   0.0833333
        k(   13) = (   0.1666667   0.1666667   0.0000000), wk =   0.1666667
        k(   14) = (   0.1666667   0.3333333   0.0000000), wk =   0.1666667
        k(   15) = (   0.3333333   0.3333333   0.0000000), wk =   0.0555556
        k(   16) = (  -0.1666667   0.5000000   0.0000000), wk =   0.1666667

     Dense  grid:   287543 G-vectors     FFT dimensions: (  45,  45, 360)

     Largest allocated arrays     est. size (Mb)     dimensions
        Kohn-Sham Wavefunctions         2.28 Mb     (    1528,   98)
        NL pseudopotentials             6.85 Mb     (    1528,  294)
        Each V/rho on FFT grid          0.93 Mb     (   30375,   2)
        Each G-vector array             0.09 Mb     (   11992)
        G-vector shells                 0.09 Mb     (   11992)
     Largest temporary arrays     est. size (Mb)     dimensions
        Auxiliary wavefunctions         9.14 Mb     (    1528,  392)
        Each subspace H/S matrix        0.26 Mb     (     130,  130)
        Each <psi_i|beta_j> matrix      0.44 Mb     (     294,   98)
        Arrays for rho mixing           3.71 Mb     (   30375,    8)

     Check: negative/imaginary core charge=   -0.000046    0.000000

     Initial potential from superposition of free atoms
     Check: negative starting charge=(component1):   -0.021938
     Check: negative starting charge=(component2):   -0.021137

     starting charge  160.99211, renormalised to  164.00000

     negative rho (up, down):  2.235E-02 2.153E-02
     Starting wfc are  138 randomized atomic wfcs

     total cpu time spent up to now is        3.6 secs

     per-process dynamical memory:    44.1 Mb

     Self-consistent Calculation

     iteration #  1     ecut=    30.00 Ry     beta=0.70
     Davidson diagonalization with overlap
     ethr =  1.00E-02,  avg # of iterations =  2.5

     negative rho (up, down):  1.726E-02 2.028E-02
 
     Magnetic moment per site:
     atom:    1    charge:    2.5873    magn:    0.8397    constr:    0.0000
     atom:    2    charge:    2.5873    magn:    0.8397    constr:    0.0000
     atom:    3    charge:    2.5873    magn:    0.8397    constr:    0.0000
     atom:    4    charge:    2.5873    magn:    0.8397    constr:    0.0000
     atom:    5    charge:    2.5873    magn:    0.8397    constr:    0.0000
     atom:    6    charge:    2.5873    magn:    0.8397    constr:    0.0000
     atom:    7    charge:    1.9318    magn:   -0.4677    constr:    0.0000
     atom:    8    charge:    1.9318    magn:   -0.4677    constr:    0.0000
     atom:    9    charge:    1.9318    magn:   -0.4677    constr:    0.0000
     atom:   10    charge:    1.9318    magn:   -0.4677    constr:    0.0000
     atom:   11    charge:    1.9318    magn:   -0.4677    constr:    0.0000
     atom:   12    charge:    1.9318    magn:   -0.4677    constr:    0.0000
     atom:   13    charge:    7.4473    magn:    1.2982    constr:    0.0000
     atom:   14    charge:    7.4473    magn:    1.2982    constr:    0.0000
     atom:   15    charge:   12.4027    magn:   -6.1792    constr:    0.0000
     atom:   16    charge:   12.4027    magn:   -6.1792    constr:    0.0000
     atom:   17    charge:    1.0420    magn:    0.1326    constr:    0.0000
     atom:   18    charge:    1.0503    magn:    0.2435    constr:    0.0000
     atom:   19    charge:    1.0420    magn:    0.1326    constr:    0.0000
     atom:   20    charge:    1.0503    magn:    0.2435    constr:    0.0000
     atom:   21    charge:    1.0420    magn:    0.1326    constr:    0.0000
     atom:   22    charge:    1.0503    magn:    0.2435    constr:    0.0000
     atom:   23    charge:    1.0503    magn:    0.2435    constr:    0.0000
     atom:   24    charge:    1.0420    magn:    0.1326    constr:    0.0000
     atom:   25    charge:    1.0503    magn:    0.2435    constr:    0.0000
     atom:   26    charge:    1.0420    magn:    0.1326    constr:    0.0000
     atom:   27    charge:    1.0503    magn:    0.2435    constr:    0.0000
     atom:   28    charge:    1.0420    magn:    0.1326    constr:    0.0000

     total cpu time spent up to now is        6.1 secs

     total energy              =   -1065.81033390 Ry
     Harris-Foulkes estimate   =   -1061.36042342 Ry
     estimated scf accuracy    <      13.35052543 Ry

     total magnetization       =    -4.47 Bohr mag/cell
     absolute magnetization    =    22.23 Bohr mag/cell

     iteration #  2     ecut=    30.00 Ry     beta=0.70
     Davidson diagonalization with overlap
     c_bands:  2 eigenvalues not converged
     c_bands:  1 eigenvalues not converged
     ethr =  8.14E-03,  avg # of iterations = 12.0

     negative rho (up, down):  8.763E-03 9.287E-03
 
     Magnetic moment per site:
     atom:    1    charge:    2.6572    magn:    0.7836    constr:    0.0000
     atom:    2    charge:    2.6572    magn:    0.7836    constr:    0.0000
     atom:    3    charge:    2.6572    magn:    0.7836    constr:    0.0000
     atom:    4    charge:    2.6572    magn:    0.7836    constr:    0.0000
     atom:    5    charge:    2.6572    magn:    0.7836    constr:    0.0000
     atom:    6    charge:    2.6572    magn:    0.7836    constr:    0.0000
     atom:    7    charge:    1.8431    magn:   -0.4472    constr:    0.0000
     atom:    8    charge:    1.8431    magn:   -0.4472    constr:    0.0000
     atom:    9    charge:    1.8431    magn:   -0.4472    constr:    0.0000
     atom:   10    charge:    1.8431    magn:   -0.4472    constr:    0.0000
     atom:   11    charge:    1.8431    magn:   -0.4472    constr:    0.0000
     atom:   12    charge:    1.8431    magn:   -0.4472    constr:    0.0000
     atom:   13    charge:    7.4416    magn:    1.1924    constr:    0.0000
     atom:   14    charge:    7.4416    magn:    1.1924    constr:    0.0000
     atom:   15    charge:   12.4825    magn:   -5.9005    constr:    0.0000
     atom:   16    charge:   12.4825    magn:   -5.9005    constr:    0.0000
     atom:   17    charge:    1.0563    magn:    0.1300    constr:    0.0000
     atom:   18    charge:    1.0121    magn:    0.2268    constr:    0.0000
     atom:   19    charge:    1.0563    magn:    0.1300    constr:    0.0000
     atom:   20    charge:    1.0121    magn:    0.2268    constr:    0.0000
     atom:   21    charge:    1.0563    magn:    0.1300    constr:    0.0000
     atom:   22    charge:    1.0121    magn:    0.2268    constr:    0.0000
     atom:   23    charge:    1.0121    magn:    0.2268    constr:    0.0000
     atom:   24    charge:    1.0563    magn:    0.1300    constr:    0.0000
     atom:   25    charge:    1.0121    magn:    0.2268    constr:    0.0000
     atom:   26    charge:    1.0563    magn:    0.1300    constr:    0.0000
     atom:   27    charge:    1.0121    magn:    0.2268    constr:    0.0000
     atom:   28    charge:    1.0563    magn:    0.1300    constr:    0.0000

     total cpu time spent up to now is       11.7 secs

     total energy              =   -1041.21202965 Ry
     Harris-Foulkes estimate   =   -1075.58480103 Ry
     estimated scf accuracy    <     229.98232290 Ry

     total magnetization       =    -3.22 Bohr mag/cell
     absolute magnetization    =    17.83 Bohr mag/cell

     iteration #  3     ecut=    30.00 Ry     beta=0.70
     Davidson diagonalization with overlap
     ethr =  8.14E-03,  avg # of iterations =  5.7

     negative rho (up, down):  8.302E-03 1.072E-02
 
     Magnetic moment per site:
     atom:    1    charge:    2.8290    magn:    0.4805    constr:    0.0000
     atom:    2    charge:    2.8290    magn:    0.4805    constr:    0.0000
     atom:    3    charge:    2.8290    magn:    0.4805    constr:    0.0000
     atom:    4    charge:    2.8290    magn:    0.4805    constr:    0.0000
     atom:    5    charge:    2.8290    magn:    0.4805    constr:    0.0000
     atom:    6    charge:    2.8290    magn:    0.4805    constr:    0.0000
     atom:    7    charge:    1.8630    magn:   -0.2850    constr:    0.0000
     atom:    8    charge:    1.8630    magn:   -0.2850    constr:    0.0000
     atom:    9    charge:    1.8630    magn:   -0.2850    constr:    0.0000
     atom:   10    charge:    1.8630    magn:   -0.2850    constr:    0.0000
     atom:   11    charge:    1.8630    magn:   -0.2850    constr:    0.0000
     atom:   12    charge:    1.8630    magn:   -0.2850    constr:    0.0000
     atom:   13    charge:    7.4883    magn:    0.6135    constr:    0.0000
     atom:   14    charge:    7.4883    magn:    0.6135    constr:    0.0000
     atom:   15    charge:   12.6702    magn:   -3.9934    constr:    0.0000
     atom:   16    charge:   12.6702    magn:   -3.9934    constr:    0.0000
     atom:   17    charge:    0.9289    magn:    0.0826    constr:    0.0000
     atom:   18    charge:    0.9520    magn:    0.1733    constr:    0.0000
     atom:   19    charge:    0.9289    magn:    0.0826    constr:    0.0000
     atom:   20    charge:    0.9520    magn:    0.1733    constr:    0.0000
     atom:   21    charge:    0.9289    magn:    0.0826    constr:    0.0000
     atom:   22    charge:    0.9520    magn:    0.1733    constr:    0.0000
     atom:   23    charge:    0.9520    magn:    0.1733    constr:    0.0000
     atom:   24    charge:    0.9289    magn:    0.0826    constr:    0.0000
     atom:   25    charge:    0.9520    magn:    0.1733    constr:    0.0000
     atom:   26    charge:    0.9289    magn:    0.0826    constr:    0.0000
     atom:   27    charge:    0.9520    magn:    0.1733    constr:    0.0000
     atom:   28    charge:    0.9289    magn:    0.0826    constr:    0.0000

     total cpu time spent up to now is       15.0 secs

     total energy              =   -1069.64436569 Ry
     Harris-Foulkes estimate   =   -1071.23449138 Ry
     estimated scf accuracy    <       9.14166532 Ry

     total magnetization       =    -0.00 Bohr mag/cell
     absolute magnetization    =    12.33 Bohr mag/cell

     iteration #  4     ecut=    30.00 Ry     beta=0.70
     Davidson diagonalization with overlap
     ethr =  5.57E-03,  avg # of iterations =  3.6

     negative rho (up, down):  7.651E-03 1.791E-02
 
     Magnetic moment per site:
     atom:    1    charge:    2.7029    magn:    0.1254    constr:    0.0000
     atom:    2    charge:    2.7029    magn:    0.1254    constr:    0.0000
     atom:    3    charge:    2.7029    magn:    0.1254    constr:    0.0000
     atom:    4    charge:    2.7029    magn:    0.1254    constr:    0.0000
     atom:    5    charge:    2.7029    magn:    0.1254    constr:    0.0000
     atom:    6    charge:    2.7029    magn:    0.1254    constr:    0.0000
     atom:    7    charge:    1.7757    magn:   -0.0936    constr:    0.0000
     atom:    8    charge:    1.7757    magn:   -0.0936    constr:    0.0000
     atom:    9    charge:    1.7757    magn:   -0.0936    constr:    0.0000
     atom:   10    charge:    1.7757    magn:   -0.0936    constr:    0.0000
     atom:   11    charge:    1.7757    magn:   -0.0936    constr:    0.0000
     atom:   12    charge:    1.7757    magn:   -0.0936    constr:    0.0000
     atom:   13    charge:    7.5033    magn:   -0.0440    constr:    0.0000
     atom:   14    charge:    7.5033    magn:   -0.0440    constr:    0.0000
     atom:   15    charge:   12.8118    magn:   -1.5044    constr:    0.0000
     atom:   16    charge:   12.8118    magn:   -1.5044    constr:    0.0000
     atom:   17    charge:    0.9713    magn:    0.0167    constr:    0.0000
     atom:   18    charge:    0.9650    magn:    0.1018    constr:    0.0000
     atom:   19    charge:    0.9713    magn:    0.0167    constr:    0.0000
     atom:   20    charge:    0.9650    magn:    0.1018    constr:    0.0000
     atom:   21    charge:    0.9713    magn:    0.0167    constr:    0.0000
     atom:   22    charge:    0.9650    magn:    0.1018    constr:    0.0000
     atom:   23    charge:    0.9650    magn:    0.1018    constr:    0.0000
     atom:   24    charge:    0.9713    magn:    0.0167    constr:    0.0000
     atom:   25    charge:    0.9650    magn:    0.1018    constr:    0.0000
     atom:   26    charge:    0.9713    magn:    0.0167    constr:    0.0000
     atom:   27    charge:    0.9650    magn:    0.1018    constr:    0.0000
     atom:   28    charge:    0.9713    magn:    0.0167    constr:    0.0000

     total cpu time spent up to now is       17.4 secs

     total energy              =   -1070.68689523 Ry
     Harris-Foulkes estimate   =   -1072.05417947 Ry
     estimated scf accuracy    <       7.42457338 Ry

     total magnetization       =    -0.00 Bohr mag/cell
     absolute magnetization    =     8.62 Bohr mag/cell

     iteration #  5     ecut=    30.00 Ry     beta=0.70
     Davidson diagonalization with overlap
     ethr =  4.53E-03,  avg # of iterations =  3.1

     negative rho (up, down):  7.548E-03 1.821E-02
 
     Magnetic moment per site:
     atom:    1    charge:    2.7146    magn:    0.0802    constr:    0.0000
     atom:    2    charge:    2.7146    magn:    0.0802    constr:    0.0000
     atom:    3    charge:    2.7146    magn:    0.0802    constr:    0.0000
     atom:    4    charge:    2.7146    magn:    0.0802    constr:    0.0000
     atom:    5    charge:    2.7146    magn:    0.0802    constr:    0.0000
     atom:    6    charge:    2.7146    magn:    0.0802    constr:    0.0000
     atom:    7    charge:    1.7899    magn:   -0.0680    constr:    0.0000
     atom:    8    charge:    1.7899    magn:   -0.0680    constr:    0.0000
     atom:    9    charge:    1.7899    magn:   -0.0680    constr:    0.0000
     atom:   10    charge:    1.7899    magn:   -0.0680    constr:    0.0000
     atom:   11    charge:    1.7899    magn:   -0.0680    constr:    0.0000
     atom:   12    charge:    1.7899    magn:   -0.0680    constr:    0.0000
     atom:   13    charge:    7.4985    magn:   -0.1010    constr:    0.0000
     atom:   14    charge:    7.4985    magn:   -0.1010    constr:    0.0000
     atom:   15    charge:   12.5402    magn:   -1.1425    constr:    0.0000
     atom:   16    charge:   12.5402    magn:   -1.1425    constr:    0.0000
     atom:   17    charge:    0.9815    magn:    0.0103    constr:    0.0000
     atom:   18    charge:    0.9677    magn:    0.0861    constr:    0.0000
     atom:   19    charge:    0.9815    magn:    0.0103    constr:    0.0000
     atom:   20    charge:    0.9677    magn:    0.0861    constr:    0.0000
     atom:   21    charge:    0.9815    magn:    0.0103    constr:    0.0000
     atom:   22    charge:    0.9677    magn:    0.0861    constr:    0.0000
     atom:   23    charge:    0.9677    magn:    0.0861    constr:    0.0000
     atom:   24    charge:    0.9815    magn:    0.0103    constr:    0.0000
     atom:   25    charge:    0.9677    magn:    0.0861    constr:    0.0000
     atom:   26    charge:    0.9815    magn:    0.0103    constr:    0.0000
     atom:   27    charge:    0.9677    magn:    0.0861    constr:    0.0000
     atom:   28    charge:    0.9815    magn:    0.0103    constr:    0.0000

     total cpu time spent up to now is       19.5 secs

     total energy              =   -1070.73183809 Ry
     Harris-Foulkes estimate   =   -1072.63445785 Ry
     estimated scf accuracy    <      10.50510194 Ry

     total magnetization       =    -0.00 Bohr mag/cell
     absolute magnetization    =     3.55 Bohr mag/cell

     iteration #  6     ecut=    30.00 Ry     beta=0.70
     Davidson diagonalization with overlap
     ethr =  4.53E-03,  avg # of iterations =  3.5

     negative rho (up, down):  7.444E-03 2.004E-02
 
     Magnetic moment per site:
     atom:    1    charge:    2.7266    magn:    0.0042    constr:    0.0000
     atom:    2    charge:    2.7266    magn:    0.0042    constr:    0.0000
     atom:    3    charge:    2.7266    magn:    0.0042    constr:    0.0000
     atom:    4    charge:    2.7266    magn:    0.0042    constr:    0.0000
     atom:    5    charge:    2.7266    magn:    0.0042    constr:    0.0000
     atom:    6    charge:    2.7266    magn:    0.0042    constr:    0.0000
     atom:    7    charge:    1.8252    magn:   -0.0251    constr:    0.0000
     atom:    8    charge:    1.8252    magn:   -0.0251    constr:    0.0000
     atom:    9    charge:    1.8252    magn:   -0.0251    constr:    0.0000
     atom:   10    charge:    1.8252    magn:   -0.0251    constr:    0.0000
     atom:   11    charge:    1.8252    magn:   -0.0251    constr:    0.0000
     atom:   12    charge:    1.8252    magn:   -0.0251    constr:    0.0000
     atom:   13    charge:    7.4735    magn:   -0.1364    constr:    0.0000
     atom:   14    charge:    7.4735    magn:   -0.1364    constr:    0.0000
     atom:   15    charge:   12.6524    magn:   -0.4080    constr:    0.0000
     atom:   16    charge:   12.6524    magn:   -0.4080    constr:    0.0000
     atom:   17    charge:    0.9786    magn:    0.0018    constr:    0.0000
     atom:   18    charge:    0.9659    magn:    0.0459    constr:    0.0000
     atom:   19    charge:    0.9786    magn:    0.0018    constr:    0.0000
     atom:   20    charge:    0.9659    magn:    0.0459    constr:    0.0000
     atom:   21    charge:    0.9786    magn:    0.0018    constr:    0.0000
     atom:   22    charge:    0.9659    magn:    0.0459    constr:    0.0000
     atom:   23    charge:    0.9659    magn:    0.0459    constr:    0.0000
     atom:   24    charge:    0.9786    magn:    0.0018    constr:    0.0000
     atom:   25    charge:    0.9659    magn:    0.0459    constr:    0.0000
     atom:   26    charge:    0.9786    magn:    0.0018    constr:    0.0000
     atom:   27    charge:    0.9659    magn:    0.0459    constr:    0.0000
     atom:   28    charge:    0.9786    magn:    0.0018    constr:    0.0000

     total cpu time spent up to now is       21.6 secs

     total energy              =   -1071.63944388 Ry
     Harris-Foulkes estimate   =   -1072.09710214 Ry
     estimated scf accuracy    <       2.91875224 Ry

     total magnetization       =    -0.00 Bohr mag/cell
     absolute magnetization    =     2.72 Bohr mag/cell

     iteration #  7     ecut=    30.00 Ry     beta=0.70
     Davidson diagonalization with overlap
     ethr =  1.78E-03,  avg # of iterations =  1.5

     negative rho (up, down):  7.734E-03 2.084E-02
 
     Magnetic moment per site:
     atom:    1    charge:    2.7314    magn:   -0.0028    constr:    0.0000
     atom:    2    charge:    2.7314    magn:   -0.0028    constr:    0.0000
     atom:    3    charge:    2.7314    magn:   -0.0028    constr:    0.0000
     atom:    4    charge:    2.7314    magn:   -0.0028    constr:    0.0000
     atom:    5    charge:    2.7314    magn:   -0.0028    constr:    0.0000
     atom:    6    charge:    2.7314    magn:   -0.0028    constr:    0.0000
     atom:    7    charge:    1.8117    magn:   -0.0167    constr:    0.0000
     atom:    8    charge:    1.8117    magn:   -0.0167    constr:    0.0000
     atom:    9    charge:    1.8117    magn:   -0.0167    constr:    0.0000
     atom:   10    charge:    1.8117    magn:   -0.0167    constr:    0.0000
     atom:   11    charge:    1.8117    magn:   -0.0167    constr:    0.0000
     atom:   12    charge:    1.8117    magn:   -0.0167    constr:    0.0000
     atom:   13    charge:    7.4706    magn:   -0.0763    constr:    0.0000
     atom:   14    charge:    7.4706    magn:   -0.0763    constr:    0.0000
     atom:   15    charge:   12.6430    magn:   -0.2095    constr:    0.0000
     atom:   16    charge:   12.6430    magn:   -0.2095    constr:    0.0000
     atom:   17    charge:    0.9693    magn:    0.0025    constr:    0.0000
     atom:   18    charge:    0.9798    magn:    0.0261    constr:    0.0000
     atom:   19    charge:    0.9693    magn:    0.0025    constr:    0.0000
     atom:   20    charge:    0.9798    magn:    0.0261    constr:    0.0000
     atom:   21    charge:    0.9693    magn:    0.0025    constr:    0.0000
     atom:   22    charge:    0.9798    magn:    0.0261    constr:    0.0000
     atom:   23    charge:    0.9798    magn:    0.0261    constr:    0.0000
     atom:   24    charge:    0.9693    magn:    0.0025    constr:    0.0000
     atom:   25    charge:    0.9798    magn:    0.0261    constr:    0.0000
     atom:   26    charge:    0.9693    magn:    0.0025    constr:    0.0000
     atom:   27    charge:    0.9798    magn:    0.0261    constr:    0.0000
     atom:   28    charge:    0.9693    magn:    0.0025    constr:    0.0000

     total cpu time spent up to now is       23.4 secs

     total energy              =   -1071.69159157 Ry
     Harris-Foulkes estimate   =   -1071.82780014 Ry
     estimated scf accuracy    <       1.11508697 Ry

     total magnetization       =    -0.00 Bohr mag/cell
     absolute magnetization    =     1.15 Bohr mag/cell

     iteration #  8     ecut=    30.00 Ry     beta=0.70
     Davidson diagonalization with overlap
     ethr =  6.80E-04,  avg # of iterations =  2.4

     negative rho (up, down):  8.629E-03 2.159E-02
 
     Magnetic moment per site:
     atom:    1    charge:    2.7237    magn:   -0.0035    constr:    0.0000
     atom:    2    charge:    2.7237    magn:   -0.0035    constr:    0.0000
     atom:    3    charge:    2.7237    magn:   -0.0035    constr:    0.0000
     atom:    4    charge:    2.7237    magn:   -0.0035    constr:    0.0000
     atom:    5    charge:    2.7237    magn:   -0.0035    constr:    0.0000
     atom:    6    charge:    2.7237    magn:   -0.0035    constr:    0.0000
     atom:    7    charge:    1.8155    magn:   -0.0110    constr:    0.0000
     atom:    8    charge:    1.8155    magn:   -0.0110    constr:    0.0000
     atom:    9    charge:    1.8155    magn:   -0.0110    constr:    0.0000
     atom:   10    charge:    1.8155    magn:   -0.0110    constr:    0.0000
     atom:   11    charge:    1.8155    magn:   -0.0110    constr:    0.0000
     atom:   12    charge:    1.8155    magn:   -0.0110    constr:    0.0000
     atom:   13    charge:    7.4747    magn:   -0.0076    constr:    0.0000
     atom:   14    charge:    7.4747    magn:   -0.0076    constr:    0.0000
     atom:   15    charge:   12.6410    magn:   -0.0637    constr:    0.0000
     atom:   16    charge:   12.6410    magn:   -0.0637    constr:    0.0000
     atom:   17    charge:    0.9687    magn:    0.0045    constr:    0.0000
     atom:   18    charge:    0.9750    magn:    0.0054    constr:    0.0000
     atom:   19    charge:    0.9687    magn:    0.0045    constr:    0.0000
     atom:   20    charge:    0.9750    magn:    0.0054    constr:    0.0000
     atom:   21    charge:    0.9687    magn:    0.0045    constr:    0.0000
     atom:   22    charge:    0.9750    magn:    0.0054    constr:    0.0000
     atom:   23    charge:    0.9750    magn:    0.0054    constr:    0.0000
     atom:   24    charge:    0.9687    magn:    0.0045    constr:    0.0000
     atom:   25    charge:    0.9750    magn:    0.0054    constr:    0.0000
     atom:   26    charge:    0.9687    magn:    0.0045    constr:    0.0000
     atom:   27    charge:    0.9750    magn:    0.0054    constr:    0.0000
     atom:   28    charge:    0.9687    magn:    0.0045    constr:    0.0000

     total cpu time spent up to now is       25.3 secs

     total energy              =   -1071.59178401 Ry
     Harris-Foulkes estimate   =   -1071.72628060 Ry
     estimated scf accuracy    <       0.78930621 Ry

     total magnetization       =    -0.00 Bohr mag/cell
     absolute magnetization    =     0.61 Bohr mag/cell

     iteration #  9     ecut=    30.00 Ry     beta=0.70
     Davidson diagonalization with overlap
     ethr =  4.81E-04,  avg # of iterations =  5.5

     negative rho (up, down):  9.522E-03 2.217E-02
 
     Magnetic moment per site:
     atom:    1    charge:    2.7259    magn:   -0.0020    constr:    0.0000
     atom:    2    charge:    2.7259    magn:   -0.0020    constr:    0.0000
     atom:    3    charge:    2.7259    magn:   -0.0020    constr:    0.0000
     atom:    4    charge:    2.7259    magn:   -0.0020    constr:    0.0000
     atom:    5    charge:    2.7259    magn:   -0.0020    constr:    0.0000
     atom:    6    charge:    2.7259    magn:   -0.0020    constr:    0.0000
     atom:    7    charge:    1.8149    magn:   -0.0090    constr:    0.0000
     atom:    8    charge:    1.8149    magn:   -0.0090    constr:    0.0000
     atom:    9    charge:    1.8149    magn:   -0.0090    constr:    0.0000
     atom:   10    charge:    1.8149    magn:   -0.0090    constr:    0.0000
     atom:   11    charge:    1.8149    magn:   -0.0090    constr:    0.0000
     atom:   12    charge:    1.8149    magn:   -0.0090    constr:    0.0000
     atom:   13    charge:    7.4758    magn:    0.0122    constr:    0.0000
     atom:   14    charge:    7.4758    magn:    0.0122    constr:    0.0000
     atom:   15    charge:   12.6369    magn:   -0.0333    constr:    0.0000
     atom:   16    charge:   12.6369    magn:   -0.0333    constr:    0.0000
     atom:   17    charge:    0.9678    magn:    0.0050    constr:    0.0000
     atom:   18    charge:    0.9771    magn:   -0.0006    constr:    0.0000
     atom:   19    charge:    0.9678    magn:    0.0050    constr:    0.0000
     atom:   20    charge:    0.9771    magn:   -0.0006    constr:    0.0000
     atom:   21    charge:    0.9678    magn:    0.0050    constr:    0.0000
     atom:   22    charge:    0.9771    magn:   -0.0006    constr:    0.0000
     atom:   23    charge:    0.9771    magn:   -0.0006    constr:    0.0000
     atom:   24    charge:    0.9678    magn:    0.0050    constr:    0.0000
     atom:   25    charge:    0.9771    magn:   -0.0006    constr:    0.0000
     atom:   26    charge:    0.9678    magn:    0.0050    constr:    0.0000
     atom:   27    charge:    0.9771    magn:   -0.0006    constr:    0.0000
     atom:   28    charge:    0.9678    magn:    0.0050    constr:    0.0000

     total cpu time spent up to now is       27.6 secs

     total energy              =   -1071.55596741 Ry
     Harris-Foulkes estimate   =   -1071.61142452 Ry
     estimated scf accuracy    <       0.39395061 Ry

     total magnetization       =     0.00 Bohr mag/cell
     absolute magnetization    =     0.23 Bohr mag/cell

     iteration # 10     ecut=    30.00 Ry     beta=0.70
     Davidson diagonalization with overlap
     ethr =  2.40E-04,  avg # of iterations =  4.5

     negative rho (up, down):  1.194E-02 2.412E-02
 
     Magnetic moment per site:
     atom:    1    charge:    2.7261    magn:   -0.0006    constr:    0.0000
     atom:    2    charge:    2.7261    magn:   -0.0006    constr:    0.0000
     atom:    3    charge:    2.7261    magn:   -0.0006    constr:    0.0000
     atom:    4    charge:    2.7261    magn:   -0.0006    constr:    0.0000
     atom:    5    charge:    2.7261    magn:   -0.0006    constr:    0.0000
     atom:    6    charge:    2.7261    magn:   -0.0006    constr:    0.0000
     atom:    7    charge:    1.8150    magn:   -0.0055    constr:    0.0000
     atom:    8    charge:    1.8150    magn:   -0.0055    constr:    0.0000
     atom:    9    charge:    1.8150    magn:   -0.0055    constr:    0.0000
     atom:   10    charge:    1.8150    magn:   -0.0055    constr:    0.0000
     atom:   11    charge:    1.8150    magn:   -0.0055    constr:    0.0000
     atom:   12    charge:    1.8150    magn:   -0.0055    constr:    0.0000
     atom:   13    charge:    7.4765    magn:    0.0096    constr:    0.0000
     atom:   14    charge:    7.4765    magn:    0.0096    constr:    0.0000
     atom:   15    charge:   12.6332    magn:   -0.0185    constr:    0.0000
     atom:   16    charge:   12.6332    magn:   -0.0185    constr:    0.0000
     atom:   17    charge:    0.9658    magn:    0.0037    constr:    0.0000
     atom:   18    charge:    0.9790    magn:   -0.0024    constr:    0.0000
     atom:   19    charge:    0.9658    magn:    0.0037    constr:    0.0000
     atom:   20    charge:    0.9790    magn:   -0.0024    constr:    0.0000
     atom:   21    charge:    0.9658    magn:    0.0037    constr:    0.0000
     atom:   22    charge:    0.9790    magn:   -0.0024    constr:    0.0000
     atom:   23    charge:    0.9790    magn:   -0.0024    constr:    0.0000
     atom:   24    charge:    0.9658    magn:    0.0037    constr:    0.0000
     atom:   25    charge:    0.9790    magn:   -0.0024    constr:    0.0000
     atom:   26    charge:    0.9658    magn:    0.0037    constr:    0.0000
     atom:   27    charge:    0.9790    magn:   -0.0024    constr:    0.0000
     atom:   28    charge:    0.9658    magn:    0.0037    constr:    0.0000

     total cpu time spent up to now is       29.8 secs

     total energy              =   -1071.48669494 Ry
     Harris-Foulkes estimate   =   -1071.55929914 Ry
     estimated scf accuracy    <       0.26784615 Ry

     total magnetization       =    -0.00 Bohr mag/cell
     absolute magnetization    =     0.16 Bohr mag/cell

     iteration # 11     ecut=    30.00 Ry     beta=0.70
     Davidson diagonalization with overlap
     ethr =  1.63E-04,  avg # of iterations =  4.4

     negative rho (up, down):  3.815E-02 3.864E-02
 
     Magnetic moment per site:
     atom:    1    charge:    2.7305    magn:    0.0008    constr:    0.0000
     atom:    2    charge:    2.7305    magn:    0.0008    constr:    0.0000
     atom:    3    charge:    2.7305    magn:    0.0008    constr:    0.0000
     atom:    4    charge:    2.7305    magn:    0.0008    constr:    0.0000
     atom:    5    charge:    2.7305    magn:    0.0008    constr:    0.0000
     atom:    6    charge:    2.7305    magn:    0.0008    constr:    0.0000
     atom:    7    charge:    1.8124    magn:    0.0008    constr:    0.0000
     atom:    8    charge:    1.8124    magn:    0.0008    constr:    0.0000
     atom:    9    charge:    1.8124    magn:    0.0008    constr:    0.0000
     atom:   10    charge:    1.8124    magn:    0.0008    constr:    0.0000
     atom:   11    charge:    1.8124    magn:    0.0008    constr:    0.0000
     atom:   12    charge:    1.8124    magn:    0.0008    constr:    0.0000
     atom:   13    charge:    7.4771    magn:    0.0073    constr:    0.0000
     atom:   14    charge:    7.4771    magn:    0.0073    constr:    0.0000
     atom:   15    charge:   12.6302    magn:    0.0056    constr:    0.0000
     atom:   16    charge:   12.6302    magn:    0.0056    constr:    0.0000
     atom:   17    charge:    0.9625    magn:    0.0013    constr:    0.0000
     atom:   18    charge:    0.9826    magn:   -0.0045    constr:    0.0000
     atom:   19    charge:    0.9625    magn:    0.0013    constr:    0.0000
     atom:   20    charge:    0.9826    magn:   -0.0045    constr:    0.0000
     atom:   21    charge:    0.9625    magn:    0.0013    constr:    0.0000
     atom:   22    charge:    0.9826    magn:   -0.0045    constr:    0.0000
     atom:   23    charge:    0.9826    magn:   -0.0045    constr:    0.0000
     atom:   24    charge:    0.9625    magn:    0.0013    constr:    0.0000
     atom:   25    charge:    0.9826    magn:   -0.0045    constr:    0.0000
     atom:   26    charge:    0.9625    magn:    0.0013    constr:    0.0000
     atom:   27    charge:    0.9826    magn:   -0.0045    constr:    0.0000
     atom:   28    charge:    0.9625    magn:    0.0013    constr:    0.0000

     total cpu time spent up to now is       32.0 secs

     total energy              =   -1071.44885576 Ry
     Harris-Foulkes estimate   =   -1071.49613287 Ry
     estimated scf accuracy    <       0.08510714 Ry

     total magnetization       =     0.00 Bohr mag/cell
     absolute magnetization    =     0.07 Bohr mag/cell

     iteration # 12     ecut=    30.00 Ry     beta=0.70
     Davidson diagonalization with overlap
     ethr =  5.19E-05,  avg # of iterations =  7.4

     negative rho (up, down):  3.801E-02 3.842E-02
 
     Magnetic moment per site:
     atom:    1    charge:    2.7297    magn:    0.0002    constr:    0.0000
     atom:    2    charge:    2.7297    magn:    0.0002    constr:    0.0000
     atom:    3    charge:    2.7297    magn:    0.0002    constr:    0.0000
     atom:    4    charge:    2.7297    magn:    0.0002    constr:    0.0000
     atom:    5    charge:    2.7297    magn:    0.0002    constr:    0.0000
     atom:    6    charge:    2.7297    magn:    0.0002    constr:    0.0000
     atom:    7    charge:    1.8120    magn:    0.0007    constr:    0.0000
     atom:    8    charge:    1.8120    magn:    0.0007    constr:    0.0000
     atom:    9    charge:    1.8120    magn:    0.0007    constr:    0.0000
     atom:   10    charge:    1.8120    magn:    0.0007    constr:    0.0000
     atom:   11    charge:    1.8120    magn:    0.0007    constr:    0.0000
     atom:   12    charge:    1.8120    magn:    0.0007    constr:    0.0000
     atom:   13    charge:    7.4772    magn:    0.0015    constr:    0.0000
     atom:   14    charge:    7.4772    magn:    0.0015    constr:    0.0000
     atom:   15    charge:   12.6311    magn:   -0.0011    constr:    0.0000
     atom:   16    charge:   12.6311    magn:   -0.0011    constr:    0.0000
     atom:   17    charge:    0.9621    magn:    0.0006    constr:    0.0000
     atom:   18    charge:    0.9824    magn:   -0.0018    constr:    0.0000
     atom:   19    charge:    0.9621    magn:    0.0006    constr:    0.0000
     atom:   20    charge:    0.9824    magn:   -0.0018    constr:    0.0000
     atom:   21    charge:    0.9621    magn:    0.0006    constr:    0.0000
     atom:   22    charge:    0.9824    magn:   -0.0018    constr:    0.0000
     atom:   23    charge:    0.9824    magn:   -0.0018    constr:    0.0000
     atom:   24    charge:    0.9621    magn:    0.0006    constr:    0.0000
     atom:   25    charge:    0.9824    magn:   -0.0018    constr:    0.0000
     atom:   26    charge:    0.9621    magn:    0.0006    constr:    0.0000
     atom:   27    charge:    0.9824    magn:   -0.0018    constr:    0.0000
     atom:   28    charge:    0.9621    magn:    0.0006    constr:    0.0000

     total cpu time spent up to now is       35.3 secs

     total energy              =   -1071.46300104 Ry
     Harris-Foulkes estimate   =   -1071.46298753 Ry
     estimated scf accuracy    <       0.00010732 Ry

     total magnetization       =     0.00 Bohr mag/cell
     absolute magnetization    =     0.07 Bohr mag/cell

     iteration # 13     ecut=    30.00 Ry     beta=0.70
     Davidson diagonalization with overlap
     ethr =  6.54E-08,  avg # of iterations =  5.3

     negative rho (up, down):  3.843E-02 3.857E-02
 
     Magnetic moment per site:
     atom:    1    charge:    2.7298    magn:    0.0001    constr:    0.0000
     atom:    2    charge:    2.7298    magn:    0.0001    constr:    0.0000
     atom:    3    charge:    2.7298    magn:    0.0001    constr:    0.0000
     atom:    4    charge:    2.7298    magn:    0.0001    constr:    0.0000
     atom:    5    charge:    2.7298    magn:    0.0001    constr:    0.0000
     atom:    6    charge:    2.7298    magn:    0.0001    constr:    0.0000
     atom:    7    charge:    1.8118    magn:    0.0006    constr:    0.0000
     atom:    8    charge:    1.8118    magn:    0.0006    constr:    0.0000
     atom:    9    charge:    1.8118    magn:    0.0006    constr:    0.0000
     atom:   10    charge:    1.8118    magn:    0.0006    constr:    0.0000
     atom:   11    charge:    1.8118    magn:    0.0006    constr:    0.0000
     atom:   12    charge:    1.8118    magn:    0.0006    constr:    0.0000
     atom:   13    charge:    7.4774    magn:    0.0008    constr:    0.0000
     atom:   14    charge:    7.4774    magn:    0.0008    constr:    0.0000
     atom:   15    charge:   12.6313    magn:   -0.0012    constr:    0.0000
     atom:   16    charge:   12.6313    magn:   -0.0012    constr:    0.0000
     atom:   17    charge:    0.9622    magn:    0.0004    constr:    0.0000
     atom:   18    charge:    0.9826    magn:   -0.0011    constr:    0.0000
     atom:   19    charge:    0.9622    magn:    0.0004    constr:    0.0000
     atom:   20    charge:    0.9826    magn:   -0.0011    constr:    0.0000
     atom:   21    charge:    0.9622    magn:    0.0004    constr:    0.0000
     atom:   22    charge:    0.9826    magn:   -0.0011    constr:    0.0000
     atom:   23    charge:    0.9826    magn:   -0.0011    constr:    0.0000
     atom:   24    charge:    0.9622    magn:    0.0004    constr:    0.0000
     atom:   25    charge:    0.9826    magn:   -0.0011    constr:    0.0000
     atom:   26    charge:    0.9622    magn:    0.0004    constr:    0.0000
     atom:   27    charge:    0.9826    magn:   -0.0011    constr:    0.0000
     atom:   28    charge:    0.9622    magn:    0.0004    constr:    0.0000

     total cpu time spent up to now is       39.4 secs

     total energy              =   -1071.46311204 Ry
     Harris-Foulkes estimate   =   -1071.46311290 Ry
     estimated scf accuracy    <       0.00002209 Ry

     total magnetization       =    -0.00 Bohr mag/cell
     absolute magnetization    =     0.03 Bohr mag/cell

     iteration # 14     ecut=    30.00 Ry     beta=0.70
     Davidson diagonalization with overlap
     ethr =  1.35E-08,  avg # of iterations =  2.5

     negative rho (up, down):  3.852E-02 3.859E-02
 
     Magnetic moment per site:
     atom:    1    charge:    2.7298    magn:   -0.0000    constr:    0.0000
     atom:    2    charge:    2.7298    magn:   -0.0000    constr:    0.0000
     atom:    3    charge:    2.7298    magn:   -0.0000    constr:    0.0000
     atom:    4    charge:    2.7298    magn:   -0.0000    constr:    0.0000
     atom:    5    charge:    2.7298    magn:   -0.0000    constr:    0.0000
     atom:    6    charge:    2.7298    magn:   -0.0000    constr:    0.0000
     atom:    7    charge:    1.8118    magn:    0.0005    constr:    0.0000
     atom:    8    charge:    1.8118    magn:    0.0005    constr:    0.0000
     atom:    9    charge:    1.8118    magn:    0.0005    constr:    0.0000
     atom:   10    charge:    1.8118    magn:    0.0005    constr:    0.0000
     atom:   11    charge:    1.8118    magn:    0.0005    constr:    0.0000
     atom:   12    charge:    1.8118    magn:    0.0005    constr:    0.0000
     atom:   13    charge:    7.4774    magn:    0.0000    constr:    0.0000
     atom:   14    charge:    7.4774    magn:    0.0000    constr:    0.0000
     atom:   15    charge:   12.6315    magn:   -0.0009    constr:    0.0000
     atom:   16    charge:   12.6315    magn:   -0.0009    constr:    0.0000
     atom:   17    charge:    0.9622    magn:    0.0002    constr:    0.0000
     atom:   18    charge:    0.9826    magn:   -0.0006    constr:    0.0000
     atom:   19    charge:    0.9622    magn:    0.0002    constr:    0.0000
     atom:   20    charge:    0.9826    magn:   -0.0006    constr:    0.0000
     atom:   21    charge:    0.9622    magn:    0.0002    constr:    0.0000
     atom:   22    charge:    0.9826    magn:   -0.0006    constr:    0.0000
     atom:   23    charge:    0.9826    magn:   -0.0006    constr:    0.0000
     atom:   24    charge:    0.9622    magn:    0.0002    constr:    0.0000
     atom:   25    charge:    0.9826    magn:   -0.0006    constr:    0.0000
     atom:   26    charge:    0.9622    magn:    0.0002    constr:    0.0000
     atom:   27    charge:    0.9826    magn:   -0.0006    constr:    0.0000
     atom:   28    charge:    0.9622    magn:    0.0002    constr:    0.0000

     total cpu time spent up to now is       41.5 secs

     total energy              =   -1071.46311718 Ry
     Harris-Foulkes estimate   =   -1071.46311606 Ry
     estimated scf accuracy    <       0.00000306 Ry

     total magnetization       =    -0.00 Bohr mag/cell
     absolute magnetization    =     0.02 Bohr mag/cell

     iteration # 15     ecut=    30.00 Ry     beta=0.70
     Davidson diagonalization with overlap
     ethr =  1.87E-09,  avg # of iterations =  2.9

     negative rho (up, down):  3.856E-02 3.858E-02
 
     Magnetic moment per site:
     atom:    1    charge:    2.7298    magn:   -0.0000    constr:    0.0000
     atom:    2    charge:    2.7298    magn:   -0.0000    constr:    0.0000
     atom:    3    charge:    2.7298    magn:   -0.0000    constr:    0.0000
     atom:    4    charge:    2.7298    magn:   -0.0000    constr:    0.0000
     atom:    5    charge:    2.7298    magn:   -0.0000    constr:    0.0000
     atom:    6    charge:    2.7298    magn:   -0.0000    constr:    0.0000
     atom:    7    charge:    1.8118    magn:    0.0004    constr:    0.0000
     atom:    8    charge:    1.8118    magn:    0.0004    constr:    0.0000
     atom:    9    charge:    1.8118    magn:    0.0004    constr:    0.0000
     atom:   10    charge:    1.8118    magn:    0.0004    constr:    0.0000
     atom:   11    charge:    1.8118    magn:    0.0004    constr:    0.0000
     atom:   12    charge:    1.8118    magn:    0.0004    constr:    0.0000
     atom:   13    charge:    7.4774    magn:    0.0000    constr:    0.0000
     atom:   14    charge:    7.4774    magn:    0.0000    constr:    0.0000
     atom:   15    charge:   12.6316    magn:   -0.0004    constr:    0.0000
     atom:   16    charge:   12.6316    magn:   -0.0004    constr:    0.0000
     atom:   17    charge:    0.9622    magn:    0.0001    constr:    0.0000
     atom:   18    charge:    0.9827    magn:   -0.0003    constr:    0.0000
     atom:   19    charge:    0.9622    magn:    0.0001    constr:    0.0000
     atom:   20    charge:    0.9827    magn:   -0.0003    constr:    0.0000
     atom:   21    charge:    0.9622    magn:    0.0001    constr:    0.0000
     atom:   22    charge:    0.9827    magn:   -0.0003    constr:    0.0000
     atom:   23    charge:    0.9827    magn:   -0.0003    constr:    0.0000
     atom:   24    charge:    0.9622    magn:    0.0001    constr:    0.0000
     atom:   25    charge:    0.9827    magn:   -0.0003    constr:    0.0000
     atom:   26    charge:    0.9622    magn:    0.0001    constr:    0.0000
     atom:   27    charge:    0.9827    magn:   -0.0003    constr:    0.0000
     atom:   28    charge:    0.9622    magn:    0.0001    constr:    0.0000

     total cpu time spent up to now is       43.8 secs

     total energy              =   -1071.46311850 Ry
     Harris-Foulkes estimate   =   -1071.46311822 Ry
     estimated scf accuracy    <       0.00000081 Ry

     total magnetization       =     0.00 Bohr mag/cell
     absolute magnetization    =     0.01 Bohr mag/cell

     iteration # 16     ecut=    30.00 Ry     beta=0.70
     Davidson diagonalization with overlap
     ethr =  4.95E-10,  avg # of iterations =  2.9

     negative rho (up, down):  3.856E-02 3.858E-02
 
     Magnetic moment per site:
     atom:    1    charge:    2.7298    magn:   -0.0000    constr:    0.0000
     atom:    2    charge:    2.7298    magn:   -0.0000    constr:    0.0000
     atom:    3    charge:    2.7298    magn:   -0.0000    constr:    0.0000
     atom:    4    charge:    2.7298    magn:   -0.0000    constr:    0.0000
     atom:    5    charge:    2.7298    magn:   -0.0000    constr:    0.0000
     atom:    6    charge:    2.7298    magn:   -0.0000    constr:    0.0000
     atom:    7    charge:    1.8118    magn:    0.0003    constr:    0.0000
     atom:    8    charge:    1.8118    magn:    0.0003    constr:    0.0000
     atom:    9    charge:    1.8118    magn:    0.0003    constr:    0.0000
     atom:   10    charge:    1.8118    magn:    0.0003    constr:    0.0000
     atom:   11    charge:    1.8118    magn:    0.0003    constr:    0.0000
     atom:   12    charge:    1.8118    magn:    0.0003    constr:    0.0000
     atom:   13    charge:    7.4774    magn:    0.0000    constr:    0.0000
     atom:   14    charge:    7.4774    magn:    0.0000    constr:    0.0000
     atom:   15    charge:   12.6315    magn:   -0.0003    constr:    0.0000
     atom:   16    charge:   12.6315    magn:   -0.0003    constr:    0.0000
     atom:   17    charge:    0.9622    magn:    0.0001    constr:    0.0000
     atom:   18    charge:    0.9827    magn:   -0.0002    constr:    0.0000
     atom:   19    charge:    0.9622    magn:    0.0001    constr:    0.0000
     atom:   20    charge:    0.9827    magn:   -0.0002    constr:    0.0000
     atom:   21    charge:    0.9622    magn:    0.0001    constr:    0.0000
     atom:   22    charge:    0.9827    magn:   -0.0002    constr:    0.0000
     atom:   23    charge:    0.9827    magn:   -0.0002    constr:    0.0000
     atom:   24    charge:    0.9622    magn:    0.0001    constr:    0.0000
     atom:   25    charge:    0.9827    magn:   -0.0002    constr:    0.0000
     atom:   26    charge:    0.9622    magn:    0.0001    constr:    0.0000
     atom:   27    charge:    0.9827    magn:   -0.0002    constr:    0.0000
     atom:   28    charge:    0.9622    magn:    0.0001    constr:    0.0000

     total cpu time spent up to now is       46.2 secs

     total energy              =   -1071.46311883 Ry
     Harris-Foulkes estimate   =   -1071.46311897 Ry
     estimated scf accuracy    <       0.00000134 Ry

     total magnetization       =     0.00 Bohr mag/cell
     absolute magnetization    =     0.01 Bohr mag/cell

     iteration # 17     ecut=    30.00 Ry     beta=0.70
     Davidson diagonalization with overlap
     ethr =  4.95E-10,  avg # of iterations =  2.5

     negative rho (up, down):  3.856E-02 3.856E-02
 
     Magnetic moment per site:
     atom:    1    charge:    2.7298    magn:   -0.0000    constr:    0.0000
     atom:    2    charge:    2.7298    magn:   -0.0000    constr:    0.0000
     atom:    3    charge:    2.7298    magn:   -0.0000    constr:    0.0000
     atom:    4    charge:    2.7298    magn:   -0.0000    constr:    0.0000
     atom:    5    charge:    2.7298    magn:   -0.0000    constr:    0.0000
     atom:    6    charge:    2.7298    magn:   -0.0000    constr:    0.0000
     atom:    7    charge:    1.8118    magn:    0.0001    constr:    0.0000
     atom:    8    charge:    1.8118    magn:    0.0001    constr:    0.0000
     atom:    9    charge:    1.8118    magn:    0.0001    constr:    0.0000
     atom:   10    charge:    1.8118    magn:    0.0001    constr:    0.0000
     atom:   11    charge:    1.8118    magn:    0.0001    constr:    0.0000
     atom:   12    charge:    1.8118    magn:    0.0001    constr:    0.0000
     atom:   13    charge:    7.4774    magn:   -0.0000    constr:    0.0000
     atom:   14    charge:    7.4774    magn:   -0.0000    constr:    0.0000
     atom:   15    charge:   12.6315    magn:   -0.0001    constr:    0.0000
     atom:   16    charge:   12.6315    magn:   -0.0001    constr:    0.0000
     atom:   17    charge:    0.9622    magn:    0.0000    constr:    0.0000
     atom:   18    charge:    0.9827    magn:   -0.0001    constr:    0.0000
     atom:   19    charge:    0.9622    magn:    0.0000    constr:    0.0000
     atom:   20    charge:    0.9827    magn:   -0.0001    constr:    0.0000
     atom:   21    charge:    0.9622    magn:    0.0000    constr:    0.0000
     atom:   22    charge:    0.9827    magn:   -0.0001    constr:    0.0000
     atom:   23    charge:    0.9827    magn:   -0.0001    constr:    0.0000
     atom:   24    charge:    0.9622    magn:    0.0000    constr:    0.0000
     atom:   25    charge:    0.9827    magn:   -0.0001    constr:    0.0000
     atom:   26    charge:    0.9622    magn:    0.0000    constr:    0.0000
     atom:   27    charge:    0.9827    magn:   -0.0001    constr:    0.0000
     atom:   28    charge:    0.9622    magn:    0.0000    constr:    0.0000

     total cpu time spent up to now is       48.2 secs

     total energy              =   -1071.46311908 Ry
     Harris-Foulkes estimate   =   -1071.46311902 Ry
     estimated scf accuracy    <       0.00000015 Ry

     total magnetization       =     0.00 Bohr mag/cell
     absolute magnetization    =     0.01 Bohr mag/cell

     iteration # 18     ecut=    30.00 Ry     beta=0.70
     Davidson diagonalization with overlap
     ethr =  9.41E-11,  avg # of iterations =  3.0

     negative rho (up, down):  3.857E-02 3.857E-02
 
     Magnetic moment per site:
     atom:    1    charge:    2.7298    magn:   -0.0000    constr:    0.0000
     atom:    2    charge:    2.7298    magn:   -0.0000    constr:    0.0000
     atom:    3    charge:    2.7298    magn:   -0.0000    constr:    0.0000
     atom:    4    charge:    2.7298    magn:   -0.0000    constr:    0.0000
     atom:    5    charge:    2.7298    magn:   -0.0000    constr:    0.0000
     atom:    6    charge:    2.7298    magn:   -0.0000    constr:    0.0000
     atom:    7    charge:    1.8118    magn:    0.0001    constr:    0.0000
     atom:    8    charge:    1.8118    magn:    0.0001    constr:    0.0000
     atom:    9    charge:    1.8118    magn:    0.0001    constr:    0.0000
     atom:   10    charge:    1.8118    magn:    0.0001    constr:    0.0000
     atom:   11    charge:    1.8118    magn:    0.0001    constr:    0.0000
     atom:   12    charge:    1.8118    magn:    0.0001    constr:    0.0000
     atom:   13    charge:    7.4774    magn:   -0.0000    constr:    0.0000
     atom:   14    charge:    7.4774    magn:   -0.0000    constr:    0.0000
     atom:   15    charge:   12.6315    magn:   -0.0000    constr:    0.0000
     atom:   16    charge:   12.6315    magn:   -0.0000    constr:    0.0000
     atom:   17    charge:    0.9622    magn:   -0.0000    constr:    0.0000
     atom:   18    charge:    0.9827    magn:   -0.0000    constr:    0.0000
     atom:   19    charge:    0.9622    magn:   -0.0000    constr:    0.0000
     atom:   20    charge:    0.9827    magn:   -0.0000    constr:    0.0000
     atom:   21    charge:    0.9622    magn:   -0.0000    constr:    0.0000
     atom:   22    charge:    0.9827    magn:   -0.0000    constr:    0.0000
     atom:   23    charge:    0.9827    magn:   -0.0000    constr:    0.0000
     atom:   24    charge:    0.9622    magn:   -0.0000    constr:    0.0000
     atom:   25    charge:    0.9827    magn:   -0.0000    constr:    0.0000
     atom:   26    charge:    0.9622    magn:   -0.0000    constr:    0.0000
     atom:   27    charge:    0.9827    magn:   -0.0000    constr:    0.0000
     atom:   28    charge:    0.9622    magn:   -0.0000    constr:    0.0000

     total cpu time spent up to now is       50.5 secs

     total energy              =   -1071.46311916 Ry
     Harris-Foulkes estimate   =   -1071.46311915 Ry
     estimated scf accuracy    <       0.00000001 Ry

     total magnetization       =     0.00 Bohr mag/cell
     absolute magnetization    =     0.00 Bohr mag/cell

     iteration # 19     ecut=    30.00 Ry     beta=0.70
     Davidson diagonalization with overlap
     ethr =  8.07E-12,  avg # of iterations =  3.1

     negative rho (up, down):  3.856E-02 3.856E-02
 
     Magnetic moment per site:
     atom:    1    charge:    2.7298    magn:   -0.0000    constr:    0.0000
     atom:    2    charge:    2.7298    magn:   -0.0000    constr:    0.0000
     atom:    3    charge:    2.7298    magn:   -0.0000    constr:    0.0000
     atom:    4    charge:    2.7298    magn:   -0.0000    constr:    0.0000
     atom:    5    charge:    2.7298    magn:   -0.0000    constr:    0.0000
     atom:    6    charge:    2.7298    magn:   -0.0000    constr:    0.0000
     atom:    7    charge:    1.8118    magn:    0.0000    constr:    0.0000
     atom:    8    charge:    1.8118    magn:    0.0000    constr:    0.0000
     atom:    9    charge:    1.8118    magn:    0.0000    constr:    0.0000
     atom:   10    charge:    1.8118    magn:    0.0000    constr:    0.0000
     atom:   11    charge:    1.8118    magn:    0.0000    constr:    0.0000
     atom:   12    charge:    1.8118    magn:    0.0000    constr:    0.0000
     atom:   13    charge:    7.4774    magn:    0.0000    constr:    0.0000
     atom:   14    charge:    7.4774    magn:    0.0000    constr:    0.0000
     atom:   15    charge:   12.6315    magn:    0.0000    constr:    0.0000
     atom:   16    charge:   12.6315    magn:    0.0000    constr:    0.0000
     atom:   17    charge:    0.9622    magn:   -0.0000    constr:    0.0000
     atom:   18    charge:    0.9827    magn:   -0.0000    constr:    0.0000
     atom:   19    charge:    0.9622    magn:   -0.0000    constr:    0.0000
     atom:   20    charge:    0.9827    magn:   -0.0000    constr:    0.0000
     atom:   21    charge:    0.9622    magn:   -0.0000    constr:    0.0000
     atom:   22    charge:    0.9827    magn:   -0.0000    constr:    0.0000
     atom:   23    charge:    0.9827    magn:   -0.0000    constr:    0.0000
     atom:   24    charge:    0.9622    magn:   -0.0000    constr:    0.0000
     atom:   25    charge:    0.9827    magn:   -0.0000    constr:    0.0000
     atom:   26    charge:    0.9622    magn:   -0.0000    constr:    0.0000
     atom:   27    charge:    0.9827    magn:   -0.0000    constr:    0.0000
     atom:   28    charge:    0.9622    magn:   -0.0000    constr:    0.0000

     total cpu time spent up to now is       52.9 secs

     total energy              =   -1071.46311917 Ry
     Harris-Foulkes estimate   =   -1071.46311918 Ry
     estimated scf accuracy    <          7.4E-09 Ry

     total magnetization       =    -0.00 Bohr mag/cell
     absolute magnetization    =     0.00 Bohr mag/cell

     iteration # 20     ecut=    30.00 Ry     beta=0.70
     Davidson diagonalization with overlap
     ethr =  4.49E-12,  avg # of iterations =  2.5

     negative rho (up, down):  3.856E-02 3.856E-02
 
     Magnetic moment per site:
     atom:    1    charge:    2.7298    magn:    0.0000    constr:    0.0000
     atom:    2    charge:    2.7298    magn:    0.0000    constr:    0.0000
     atom:    3    charge:    2.7298    magn:    0.0000    constr:    0.0000
     atom:    4    charge:    2.7298    magn:    0.0000    constr:    0.0000
     atom:    5    charge:    2.7298    magn:    0.0000    constr:    0.0000
     atom:    6    charge:    2.7298    magn:    0.0000    constr:    0.0000
     atom:    7    charge:    1.8118    magn:    0.0000    constr:    0.0000
     atom:    8    charge:    1.8118    magn:    0.0000    constr:    0.0000
     atom:    9    charge:    1.8118    magn:    0.0000    constr:    0.0000
     atom:   10    charge:    1.8118    magn:    0.0000    constr:    0.0000
     atom:   11    charge:    1.8118    magn:    0.0000    constr:    0.0000
     atom:   12    charge:    1.8118    magn:    0.0000    constr:    0.0000
     atom:   13    charge:    7.4774    magn:    0.0000    constr:    0.0000
     atom:   14    charge:    7.4774    magn:    0.0000    constr:    0.0000
     atom:   15    charge:   12.6315    magn:    0.0000    constr:    0.0000
     atom:   16    charge:   12.6315    magn:    0.0000    constr:    0.0000
     atom:   17    charge:    0.9622    magn:   -0.0000    constr:    0.0000
     atom:   18    charge:    0.9827    magn:   -0.0000    constr:    0.0000
     atom:   19    charge:    0.9622    magn:   -0.0000    constr:    0.0000
     atom:   20    charge:    0.9827    magn:   -0.0000    constr:    0.0000
     atom:   21    charge:    0.9622    magn:   -0.0000    constr:    0.0000
     atom:   22    charge:    0.9827    magn:   -0.0000    constr:    0.0000
     atom:   23    charge:    0.9827    magn:   -0.0000    constr:    0.0000
     atom:   24    charge:    0.9622    magn:   -0.0000    constr:    0.0000
     atom:   25    charge:    0.9827    magn:   -0.0000    constr:    0.0000
     atom:   26    charge:    0.9622    magn:   -0.0000    constr:    0.0000
     atom:   27    charge:    0.9827    magn:   -0.0000    constr:    0.0000
     atom:   28    charge:    0.9622    magn:   -0.0000    constr:    0.0000

     total cpu time spent up to now is       55.2 secs

     total energy              =   -1071.46311918 Ry
     Harris-Foulkes estimate   =   -1071.46311918 Ry
     estimated scf accuracy    <          4.3E-10 Ry

     total magnetization       =    -0.00 Bohr mag/cell
     absolute magnetization    =     0.00 Bohr mag/cell

     iteration # 21     ecut=    30.00 Ry     beta=0.70
     Davidson diagonalization with overlap
     ethr =  2.63E-13,  avg # of iterations =  3.0

     negative rho (up, down):  3.856E-02 3.856E-02
 
     Magnetic moment per site:
     atom:    1    charge:    2.7298    magn:    0.0000    constr:    0.0000
     atom:    2    charge:    2.7298    magn:    0.0000    constr:    0.0000
     atom:    3    charge:    2.7298    magn:    0.0000    constr:    0.0000
     atom:    4    charge:    2.7298    magn:    0.0000    constr:    0.0000
     atom:    5    charge:    2.7298    magn:    0.0000    constr:    0.0000
     atom:    6    charge:    2.7298    magn:    0.0000    constr:    0.0000
     atom:    7    charge:    1.8118    magn:    0.0000    constr:    0.0000
     atom:    8    charge:    1.8118    magn:    0.0000    constr:    0.0000
     atom:    9    charge:    1.8118    magn:    0.0000    constr:    0.0000
     atom:   10    charge:    1.8118    magn:    0.0000    constr:    0.0000
     atom:   11    charge:    1.8118    magn:    0.0000    constr:    0.0000
     atom:   12    charge:    1.8118    magn:    0.0000    constr:    0.0000
     atom:   13    charge:    7.4774    magn:   -0.0000    constr:    0.0000
     atom:   14    charge:    7.4774    magn:   -0.0000    constr:    0.0000
     atom:   15    charge:   12.6315    magn:    0.0000    constr:    0.0000
     atom:   16    charge:   12.6315    magn:    0.0000    constr:    0.0000
     atom:   17    charge:    0.9622    magn:   -0.0000    constr:    0.0000
     atom:   18    charge:    0.9827    magn:   -0.0000    constr:    0.0000
     atom:   19    charge:    0.9622    magn:   -0.0000    constr:    0.0000
     atom:   20    charge:    0.9827    magn:   -0.0000    constr:    0.0000
     atom:   21    charge:    0.9622    magn:   -0.0000    constr:    0.0000
     atom:   22    charge:    0.9827    magn:   -0.0000    constr:    0.0000
     atom:   23    charge:    0.9827    magn:   -0.0000    constr:    0.0000
     atom:   24    charge:    0.9622    magn:   -0.0000    constr:    0.0000
     atom:   25    charge:    0.9827    magn:   -0.0000    constr:    0.0000
     atom:   26    charge:    0.9622    magn:   -0.0000    constr:    0.0000
     atom:   27    charge:    0.9827    magn:   -0.0000    constr:    0.0000
     atom:   28    charge:    0.9622    magn:   -0.0000    constr:    0.0000

     total cpu time spent up to now is       57.6 secs

     End of self-consistent calculation

 ------ SPIN UP ------------


          k = 0.0000 0.0000 0.0000 ( 35709 PWs)   bands (ev):

   -90.8292 -90.8291 -57.0769 -57.0769 -57.0767 -57.0767 -56.9986 -56.9984
   -30.6766 -30.6435 -27.2824 -27.2823 -27.2371 -27.2371 -27.2370 -27.2370
   -20.2141 -20.1998 -20.0415 -20.0415 -20.0375 -20.0375 -14.4399 -14.4399
   -14.3493 -14.2872 -14.2220 -14.2220 -13.7593 -13.7350 -12.6304 -12.6304
   -12.6294 -12.6294 -11.4893 -11.4727 -10.5056 -10.5024 -10.3488 -10.3488
   -10.3482 -10.3482 -10.0786 -10.0786 -10.0692 -10.0692 -10.0313 -10.0308
    -9.9557  -9.9557  -9.9533  -9.9533  -9.2992  -9.2460  -8.9589  -8.9589
    -8.9115  -8.9115  -7.3425  -7.0348  -7.0348  -7.0314  -7.0314  -6.9009
    -6.4758  -6.4758  -6.4307  -6.4307  -6.4183  -6.2201  -6.1641  -6.0026
    -5.6414  -5.6414  -5.5594  -5.5594  -5.2222  -5.1989  -5.1989  -5.1885
    -5.1885  -5.1476  -0.3512  -0.3512  -0.3458  -0.3458  -0.3106  -0.3037
    -0.1665  -0.1665  -0.1658  -0.1658  -0.0227  -0.0020   0.0675   0.0675
     0.0677   0.0677

     occupation numbers 
     1.0000   1.0000   1.0000   1.0000   1.0000   1.0000   1.0000   1.0000
     1.0000   1.0000   1.0000   1.0000   1.0000   1.0000   1.0000   1.0000
     1.0000   1.0000   1.0000   1.0000   1.0000   1.0000   1.0000   1.0000
     1.0000   1.0000   1.0000   1.0000   1.0000   1.0000   1.0000   1.0000
     1.0000   1.0000   1.0000   1.0000   1.0000   1.0000   1.0000   1.0000
     1.0000   1.0000   1.0000   1.0000   1.0000   1.0000   1.0000   1.0000
     1.0000   1.0000   1.0000   1.0000   1.0000   1.0000   1.0000   1.0000
     1.0000   1.0000   1.0000   1.0000   1.0000   1.0000   1.0000   1.0000
     1.0000   1.0000   1.0000   1.0000   1.0000   1.0000   1.0000   1.0000
     1.0000   1.0000   1.0000   1.0000   1.0000   1.0000   1.0000   1.0000
     1.0000   1.0000   0.0000   0.0000   0.0000   0.0000   0.0000   0.0000
     0.0000   0.0000   0.0000   0.0000   0.0000   0.0000   0.0000   0.0000
     0.0000   0.0000

          k = 0.0000 0.1925 0.0000 ( 35929 PWs)   bands (ev):

   -90.8293 -90.8293 -57.0784 -57.0781 -57.0777 -57.0774 -56.9984 -56.9983
   -30.6746 -30.6455 -27.2790 -27.2790 -27.2393 -27.2393 -27.2384 -27.2384
   -20.2042 -20.1956 -20.0497 -20.0468 -20.0402 -20.0371 -14.4444 -14.4281
   -14.3414 -14.2904 -14.2377 -14.2190 -13.7681 -13.7516 -12.6271 -12.6266
   -12.6147 -12.6142 -11.4779 -11.4654 -10.4979 -10.4957 -10.3948 -10.3937
   -10.3527 -10.3512 -10.1174 -10.1122 -10.0854 -10.0823  -9.9764  -9.9755
    -9.9627  -9.9582  -9.9443  -9.9434  -9.2672  -9.2255  -8.9535  -8.9516
    -8.9219  -8.8946  -7.3277  -7.0709  -7.0564  -7.0398  -7.0331  -6.9245
    -6.5691  -6.4857  -6.4784  -6.4230  -6.3203  -6.1867  -6.1276  -5.9733
    -5.6859  -5.6488  -5.5849  -5.5832  -5.2381  -5.2223  -5.2151  -5.1749
    -5.1394  -5.1051  -0.3825  -0.3780  -0.3576  -0.3540  -0.2793  -0.2755
    -0.1730  -0.1700  -0.1587  -0.1503  -0.0238  -0.0071   0.0397   0.0479
     0.0661   0.0690

     occupation numbers 
     1.0000   1.0000   1.0000   1.0000   1.0000   1.0000   1.0000   1.0000
     1.0000   1.0000   1.0000   1.0000   1.0000   1.0000   1.0000   1.0000
     1.0000   1.0000   1.0000   1.0000   1.0000   1.0000   1.0000   1.0000
     1.0000   1.0000   1.0000   1.0000   1.0000   1.0000   1.0000   1.0000
     1.0000   1.0000   1.0000   1.0000   1.0000   1.0000   1.0000   1.0000
     1.0000   1.0000   1.0000   1.0000   1.0000   1.0000   1.0000   1.0000
     1.0000   1.0000   1.0000   1.0000   1.0000   1.0000   1.0000   1.0000
     1.0000   1.0000   1.0000   1.0000   1.0000   1.0000   1.0000   1.0000
     1.0000   1.0000   1.0000   1.0000   1.0000   1.0000   1.0000   1.0000
     1.0000   1.0000   1.0000   1.0000   1.0000   1.0000   1.0000   1.0000
     1.0000   1.0000   0.0000   0.0000   0.0000   0.0000   0.0000   0.0000
     0.0000   0.0000   0.0000   0.0000   0.0000   0.0000   0.0000   0.0000
     0.0000   0.0000

          k = 0.0000 0.3849 0.0000 ( 36003 PWs)   bands (ev):

[...]
     atom    9 type  4   force =     0.00306474    0.00008201   -0.00502833
     atom   10 type  4   force =    -0.00306474   -0.00008201    0.00502833
     atom   11 type  4   force =     0.00160340   -0.00261314    0.00502833
     atom   12 type  4   force =    -0.00160340    0.00261314   -0.00502833
     atom   13 type  3   force =    -0.00000000    0.00000000   -0.00063671
     atom   14 type  3   force =     0.00000000   -0.00000000    0.00063671
     atom   15 type  2   force =    -0.00000000    0.00000000   -0.00045668
     atom   16 type  2   force =     0.00000000   -0.00000000    0.00045668
     atom   17 type  1   force =    -0.00183634    0.00004349   -0.00181916
     atom   18 type  1   force =    -0.00125087    0.00016360    0.00446747
     atom   19 type  1   force =    -0.00095584   -0.00156857    0.00181916
     atom   20 type  1   force =    -0.00076711   -0.00100149   -0.00446747
     atom   21 type  1   force =    -0.00088051    0.00161207    0.00181916
     atom   22 type  1   force =    -0.00048376    0.00116509   -0.00446747
     atom   23 type  1   force =     0.00048376   -0.00116509    0.00446747
     atom   24 type  1   force =     0.00088051   -0.00161207   -0.00181916
     atom   25 type  1   force =     0.00076711    0.00100149    0.00446747
     atom   26 type  1   force =     0.00095584    0.00156857   -0.00181916
     atom   27 type  1   force =     0.00125087   -0.00016360   -0.00446747
     atom   28 type  1   force =     0.00183634   -0.00004349    0.00181916
     The non-local contrib.  to forces
     atom    1 type  5   force =     1.06902943    1.80403900    1.11145963
     atom    2 type  5   force =    -1.06902943   -1.80403900   -1.11145963
     atom    3 type  5   force =     2.09685832   -0.02378714   -1.11145963
     atom    4 type  5   force =    -2.09685832    0.02378714    1.11145963
     atom    5 type  5   force =     1.02782889   -1.82782614    1.11145963
     atom    6 type  5   force =    -1.02782889    1.82782614   -1.11145963
     atom    7 type  4   force =     0.58414059    0.97045865    0.93085533
     atom    8 type  4   force =    -0.58414059   -0.97045865   -0.93085533
     atom    9 type  4   force =     1.13251214   -0.02065127   -0.93085533
     atom   10 type  4   force =    -1.13251214    0.02065127    0.93085533
     atom   11 type  4   force =     0.54837155   -0.99110992    0.93085533
     atom   12 type  4   force =    -0.54837155    0.99110992   -0.93085533
     atom   13 type  3   force =     0.00000000    0.00000000    0.00112842
     atom   14 type  3   force =     0.00000000    0.00000000   -0.00112842
     atom   15 type  2   force =     0.00000000    0.00000000    0.15136430
     atom   16 type  2   force =     0.00000000    0.00000000   -0.15136430
     atom   17 type  1   force =     0.67353423   -0.00669615   -0.34864430
     atom   18 type  1   force =     0.11964997   -0.00151880   -0.08710840
     atom   19 type  1   force =     0.34256615    0.57994968    0.34864430
     atom   20 type  1   force =     0.06114030    0.10286052    0.08710840
     atom   21 type  1   force =     0.33096808   -0.58664582    0.34864430
     atom   22 type  1   force =     0.05850967   -0.10437931    0.08710840
     atom   23 type  1   force =    -0.05850967    0.10437931   -0.08710840
     atom   24 type  1   force =    -0.33096808    0.58664582   -0.34864430
     atom   25 type  1   force =    -0.06114030   -0.10286052   -0.08710840
     atom   26 type  1   force =    -0.34256615   -0.57994968   -0.34864430
     atom   27 type  1   force =    -0.11964997    0.00151880    0.08710840
     atom   28 type  1   force =    -0.67353423    0.00669615    0.34864430
     The ionic contribution  to forces
     atom    1 type  5   force =    -5.24739781   -9.12474841  -63.35377915
     atom    2 type  5   force =     5.24739781    9.12474841   63.35377915
     atom    3 type  5   force =   -10.52596283   -0.01799440   63.35377915
     atom    4 type  5   force =    10.52596283    0.01799440  -63.35377915
     atom    5 type  5   force =    -5.27856502    9.10675401  -63.35377915
     atom    6 type  5   force =     5.27856502   -9.10675401   63.35377915
     atom    7 type  4   force =    -3.32570158   -5.51638302   10.19791063
     atom    8 type  4   force =     3.32570158    5.51638302  -10.19791063
     atom    9 type  4   force =    -6.44017863    0.12195054  -10.19791063
     atom   10 type  4   force =     6.44017863   -0.12195055   10.19791063
     atom   11 type  4   force =    -3.11447704    5.63833357   10.19791063
     atom   12 type  4   force =     3.11447704   -5.63833357  -10.19791063
     atom   13 type  3   force =     0.00000000   -0.00000000    0.76844608
     atom   14 type  3   force =     0.00000000   -0.00000000   -0.76844608
     atom   15 type  2   force =    -0.00000000    0.00000000  108.57180480
     atom   16 type  2   force =     0.00000000    0.00000000 -108.57180480
     atom   17 type  1   force =     1.86603953    0.00931826  -35.70109419
     atom   18 type  1   force =     2.30330852   -0.03710278   16.09060509
     atom   19 type  1   force =     0.92494991    1.62069677   35.70109419
     atom   20 type  1   force =     1.18378621    1.97617230  -16.09060509
     atom   21 type  1   force =     0.94108962   -1.61137851   35.70109419
     atom   22 type  1   force =     1.11952231   -2.01327508  -16.09060509
     atom   23 type  1   force =    -1.11952231    2.01327508   16.09060509
     atom   24 type  1   force =    -0.94108962    1.61137851  -35.70109419
     atom   25 type  1   force =    -1.18378621   -1.97617230   16.09060509
     atom   26 type  1   force =    -0.92494991   -1.62069677  -35.70109419
     atom   27 type  1   force =    -2.30330852    0.03710278  -16.09060509
     atom   28 type  1   force =    -1.86603953   -0.00931826   35.70109419
     The local contribution  to forces
     atom    1 type  5   force =     4.18250311    7.32706261   62.24546868
     atom    2 type  5   force =    -4.18250311   -7.32706261  -62.24546868
     atom    3 type  5   force =     8.43667391    0.04137736  -62.24546868
     atom    4 type  5   force =    -8.43667391   -0.04137736   62.24546868
     atom    5 type  5   force =     4.25417081   -7.28568525   62.24546868
     atom    6 type  5   force =    -4.25417080    7.28568525  -62.24546868
     atom    7 type  4   force =     2.74381273    4.54982231  -11.12228020
     atom    8 type  4   force =    -2.74381273   -4.54982231   11.12228021
     atom    9 type  4   force =     5.31216807   -0.10130037   11.12228020
     atom   10 type  4   force =    -5.31216806    0.10130038  -11.12228020
     atom   11 type  4   force =     2.56835534   -4.65112268  -11.12228020
     atom   12 type  4   force =    -2.56835534    4.65112268   11.12228020
     atom   13 type  3   force =     0.00000000    0.00000000   -0.76990384
     atom   14 type  3   force =     0.00000000   -0.00000000    0.76990384
     atom   15 type  2   force =     0.00000001    0.00000003 -108.72463413
     atom   16 type  2   force =     0.00000001    0.00000003  108.72463413
     atom   17 type  1   force =    -2.54437974   -0.00253754   36.04964458
     atom   18 type  1   force =    -2.43097775    0.03887240  -15.99333715
     atom   19 type  1   force =    -1.26999229   -2.20476626  -36.04964458
     atom   20 type  1   force =    -1.24915337   -2.08585229   15.99333715
     atom   21 type  1   force =    -1.27438744    2.20222872  -36.04964458
     atom   22 type  1   force =    -1.18182439    2.12472469   15.99333716
     atom   23 type  1   force =     1.18182439   -2.12472469  -15.99333715
     atom   24 type  1   force =     1.27438745   -2.20222872   36.04964458
     atom   25 type  1   force =     1.24915336    2.08585229  -15.99333715
     atom   26 type  1   force =     1.26999229    2.20476626   36.04964458
     atom   27 type  1   force =     2.43097775   -0.03887240   15.99333715
     atom   28 type  1   force =     2.54437974    0.00253754  -36.04964458
     The core correction contribution to forces
     atom    1 type  5   force =    -0.00137424   -0.00256077   -0.00164369
     atom    2 type  5   force =     0.00137424    0.00256077    0.00164369
     atom    3 type  5   force =    -0.00290482   -0.00009026    0.00164369
     atom    4 type  5   force =     0.00290482    0.00009026   -0.00164369
     atom    5 type  5   force =    -0.00153057    0.00247052   -0.00164369
     atom    6 type  5   force =     0.00153057   -0.00247052    0.00164369
     atom    7 type  4   force =    -0.00079037   -0.00120273   -0.00145770
     atom    8 type  4   force =     0.00079037    0.00120273    0.00145770
     atom    9 type  4   force =    -0.00143678    0.00008312    0.00145770
     atom   10 type  4   force =     0.00143678   -0.00008312   -0.00145770
     atom   11 type  4   force =    -0.00064641    0.00128585   -0.00145770
     atom   12 type  4   force =     0.00064641   -0.00128585    0.00145770
     atom   13 type  3   force =    -0.00000000   -0.00000000   -0.00030742
     atom   14 type  3   force =    -0.00000000    0.00000000    0.00030742
     atom   15 type  2   force =     0.00000000    0.00000000    0.00100698
     atom   16 type  2   force =     0.00000000    0.00000000   -0.00100698
     atom   17 type  1   force =     0.00296954   -0.00004108   -0.00172503
     atom   18 type  1   force =     0.00676825   -0.00008723   -0.00569225
     atom   19 type  1   force =     0.00152035    0.00255116    0.00172503
     atom   20 type  1   force =     0.00345967    0.00581786    0.00569225
     atom   21 type  1   force =     0.00144919   -0.00259224    0.00172503
     atom   22 type  1   force =     0.00330858   -0.00590509    0.00569225
     atom   23 type  1   force =    -0.00330858    0.00590509   -0.00569225
     atom   24 type  1   force =    -0.00144919    0.00259224   -0.00172503
     atom   25 type  1   force =    -0.00345967   -0.00581786   -0.00569225
     atom   26 type  1   force =    -0.00152035   -0.00255116   -0.00172503
     atom   27 type  1   force =    -0.00676825    0.00008723    0.00569225
     atom   28 type  1   force =    -0.00296954    0.00004108    0.00172503
     The Hubbard contrib.    to forces
     atom    1 type  5   force =     0.00000000    0.00000000    0.00000000
     atom    2 type  5   force =     0.00000000    0.00000000    0.00000000
     atom    3 type  5   force =     0.00000000    0.00000000    0.00000000
     atom    4 type  5   force =     0.00000000    0.00000000    0.00000000
     atom    5 type  5   force =     0.00000000    0.00000000    0.00000000
     atom    6 type  5   force =     0.00000000    0.00000000    0.00000000
     atom    7 type  4   force =     0.00000000    0.00000000    0.00000000
     atom    8 type  4   force =     0.00000000    0.00000000    0.00000000
     atom    9 type  4   force =     0.00000000    0.00000000    0.00000000
     atom   10 type  4   force =     0.00000000    0.00000000    0.00000000
     atom   11 type  4   force =     0.00000000    0.00000000    0.00000000
     atom   12 type  4   force =     0.00000000    0.00000000    0.00000000
     atom   13 type  3   force =     0.00000000    0.00000000    0.00000000
     atom   14 type  3   force =     0.00000000    0.00000000    0.00000000
     atom   15 type  2   force =     0.00000000    0.00000000    0.00000000
     atom   16 type  2   force =     0.00000000    0.00000000    0.00000000
     atom   17 type  1   force =     0.00000000    0.00000000    0.00000000
     atom   18 type  1   force =     0.00000000    0.00000000    0.00000000
     atom   19 type  1   force =     0.00000000    0.00000000    0.00000000
     atom   20 type  1   force =     0.00000000    0.00000000    0.00000000
     atom   21 type  1   force =     0.00000000    0.00000000    0.00000000
     atom   22 type  1   force =     0.00000000    0.00000000    0.00000000
     atom   23 type  1   force =     0.00000000    0.00000000    0.00000000
     atom   24 type  1   force =     0.00000000    0.00000000    0.00000000
     atom   25 type  1   force =     0.00000000    0.00000000    0.00000000
     atom   26 type  1   force =     0.00000000    0.00000000    0.00000000
     atom   27 type  1   force =     0.00000000    0.00000000    0.00000000
     atom   28 type  1   force =     0.00000000    0.00000000    0.00000000
     The SCF correction term to forces
     atom    1 type  5   force =    -0.00000005   -0.00000007   -0.00000025
     atom    2 type  5   force =     0.00000005    0.00000007    0.00000025
     atom    3 type  5   force =    -0.00000009    0.00000000    0.00000025
     atom    4 type  5   force =     0.00000009   -0.00000000   -0.00000025
     atom    5 type  5   force =    -0.00000004    0.00000008   -0.00000025
     atom    6 type  5   force =     0.00000004   -0.00000008    0.00000025
     atom    7 type  4   force =    -0.00000002   -0.00000005    0.00000028
     atom    8 type  4   force =     0.00000002    0.00000005   -0.00000028
     atom    9 type  4   force =    -0.00000005   -0.00000001   -0.00000028
     atom   10 type  4   force =     0.00000005    0.00000001    0.00000028
     atom   11 type  4   force =    -0.00000003    0.00000004    0.00000028
     atom   12 type  4   force =     0.00000003   -0.00000004   -0.00000028
     atom   13 type  3   force =    -0.00000000    0.00000000    0.00000006
     atom   14 type  3   force =     0.00000000   -0.00000000   -0.00000006
     atom   15 type  2   force =    -0.00000000   -0.00000000    0.00000137
     atom   16 type  2   force =     0.00000000    0.00000000   -0.00000137
     atom   17 type  1   force =     0.00000009   -0.00000000   -0.00000022
     atom   18 type  1   force =     0.00000014   -0.00000000    0.00000018
     atom   19 type  1   force =     0.00000005    0.00000008    0.00000022
     atom   20 type  1   force =     0.00000007    0.00000013   -0.00000018
     atom   21 type  1   force =     0.00000005   -0.00000008    0.00000022
     atom   22 type  1   force =     0.00000007   -0.00000013   -0.00000018
     atom   23 type  1   force =    -0.00000007    0.00000013    0.00000018
     atom   24 type  1   force =    -0.00000005    0.00000008   -0.00000022
     atom   25 type  1   force =    -0.00000007   -0.00000013    0.00000018
     atom   26 type  1   force =    -0.00000005   -0.00000008   -0.00000022
     atom   27 type  1   force =    -0.00000014    0.00000000   -0.00000018
     atom   28 type  1   force =    -0.00000009    0.00000000    0.00000022

     Total force =     0.022898     Total SCF correction =     0.000002


     entering subroutine stress ...


     negative rho (up, down):  3.673E-02 3.673E-02
          total   stress  (Ry/bohr**3)                   (kbar)     P=   -5.42
  -0.00003350  -0.00000000   0.00000000         -4.93     -0.00      0.00
  -0.00000000  -0.00003350   0.00000000         -0.00     -4.93      0.00
   0.00000000   0.00000000  -0.00004358          0.00      0.00     -6.41

     kinetic stress (kbar)   2784.07      0.00      0.00
                                0.00   2784.07      0.00
                               -0.00     -0.00   2797.40

     local   stress (kbar)-293979.78      0.00      0.00
                                0.00-293979.78      0.00
                                0.00      0.00 288251.85

     nonloc. stress (kbar)    695.59      0.00      0.00
                                0.00    695.59     -0.00
                                0.00      0.00    702.43

     hartree stress (kbar) 147213.31     -0.00     -0.00
                               -0.00 147213.31      0.00
                               -0.00      0.00-143102.40

     exc-cor stress (kbar)   -586.04     -0.00      0.00
                               -0.00   -586.04     -0.00
                                0.00     -0.00   -586.17

     corecor stress (kbar)   -145.40      0.00     -0.00
                                0.00   -145.40      0.00
                               -0.00      0.00   -145.66

     ewald   stress (kbar) 144013.32     -0.00     -0.00
                               -0.00 144013.32     -0.00
                               -0.00     -0.00-147923.86

     hubbard stress (kbar)      0.00      0.00      0.00
                                0.00      0.00      0.00
                                0.00      0.00      0.00

     london  stress (kbar)      0.00      0.00      0.00
                                0.00      0.00      0.00
                                0.00      0.00      0.00

     XDM     stress (kbar)      0.00      0.00      0.00
                                0.00      0.00      0.00
                                0.00      0.00      0.00

     dft-nl  stress (kbar)      0.00      0.00      0.00
                                0.00      0.00      0.00
                                0.00      0.00      0.00



     Writing output data file aiida.save
 
     init_run     :      4.72s CPU      5.71s WALL (       2 calls)
     electrons    :   1078.69s CPU   1100.02s WALL (      15 calls)
     update_pot   :     17.14s CPU     18.95s WALL (      13 calls)
     forces       :     23.68s CPU     23.79s WALL (      15 calls)
     stress       :     78.17s CPU     78.40s WALL (      15 calls)

     Called by init_run:
     wfcinit      :      1.26s CPU      1.31s WALL (       2 calls)
     potinit      :      0.78s CPU      0.80s WALL (       2 calls)

     Called by electrons:
     c_bands      :    807.49s CPU    822.91s WALL (     375 calls)
     sum_band     :    169.04s CPU    169.68s WALL (     375 calls)
     v_of_rho     :     19.27s CPU     19.39s WALL (     390 calls)
     v_h          :      0.75s CPU      0.72s WALL (     390 calls)
     v_xc         :     19.89s CPU     20.06s WALL (     420 calls)
     newd         :     74.01s CPU     74.12s WALL (     390 calls)
     mix_rho      :      5.58s CPU      5.64s WALL (     375 calls)

     Called by c_bands:
     init_us_2    :      5.01s CPU      5.24s WALL (    1564 calls)
     cegterg      :    729.67s CPU    743.38s WALL (     780 calls)

     Called by sum_band:
     sum_band:bec :      0.54s CPU      0.58s WALL (     750 calls)
     addusdens    :     91.18s CPU     91.33s WALL (     375 calls)

     Called by *egterg:
     h_psi        :    415.01s CPU    417.39s WALL (    4752 calls)
     s_psi        :     52.04s CPU     52.25s WALL (    4752 calls)
     g_psi        :      1.86s CPU      1.80s WALL (    3968 calls)
     cdiaghg      :    104.31s CPU    104.82s WALL (    4718 calls)
     cegterg:over :     55.21s CPU     55.26s WALL (    3968 calls)
     cegterg:upda :     51.51s CPU     51.75s WALL (    3968 calls)
     cegterg:last :     30.27s CPU     30.27s WALL (     989 calls)
     cdiaghg:chol :      6.10s CPU      6.07s WALL (    4718 calls)
     cdiaghg:inve :      5.79s CPU      5.73s WALL (    4718 calls)
     cdiaghg:para :     12.52s CPU     12.78s WALL (    9436 calls)

     Called by h_psi:
     h_psi:vloc   :    308.35s CPU    310.17s WALL (    4752 calls)
     h_psi:vnl    :    103.30s CPU    103.77s WALL (    4752 calls)
     add_vuspsi   :     51.86s CPU     52.06s WALL (    4752 calls)

     General routines
     calbec       :     67.61s CPU     67.86s WALL (    5562 calls)
     fft          :     17.07s CPU     17.01s WALL (   10350 calls)
     fftw         :    330.67s CPU    332.90s WALL (  544398 calls)
     davcio       :      0.00s CPU      0.01s WALL (       4 calls)
 
     Parallel routines
     fft_scatter  :     80.56s CPU     81.18s WALL (  554748 calls)
 
     PWSCF        : 20m 6.89s CPU    21m 5.47s WALL

 
   This run was terminated on:   6:34:34  24Apr2015            

=------------------------------------------------------------------------------=
   JOB DONE.
=------------------------------------------------------------------------------=
Application 1052061 resources: utime ~239372s, stime ~2795s, Rss ~111328, inblocks ~8402667, outblocks ~5766110
