
     Program PWSCF v.5.1.2 starts on 17Jul2015 at 16:44:16 

     This program is part of the open-source Quantum ESPRESSO suite
     for quantum simulation of materials; please cite
         "P. Giannozzi et al., J. Phys.:Condens. Matter 21 395502 (2009);
          URL http://www.quantum-espresso.org", 
     in publications or presentations arising from this work. More details at
     http://www.quantum-espresso.org/quote

     Parallel version (MPI & OpenMP), running on       8 processor cores
     Number of MPI processes:                 8
     Threads/MPI process:                     1
     R & G space division:  proc/nbgrp/npool/nimage =       8
     Reading input from aiida.in

     Current dimensions of program PWSCF are:
     Max number of different atomic species (ntypx) = 10
     Max number of k-points (npk) =  40000
     Max angular momentum in pseudopotentials (lmaxx) =  3

     IMPORTANT: XC functional enforced from input :
     Exchange-correlation      = VDW-DF-OB86 ( 1  4 24  0 1 0)
     Any further DFT definition will be discarded
     Please, verify this is what you really want


     Subspace diagonalization in iterative solution of the eigenvalue problem:
     scalapack distributed-memory algorithm (size of sub-group:  2*  2 procs)

 
     Parallelization info
     --------------------
     sticks:   dense  smooth     PW     G-vecs:    dense   smooth      PW
     Min         177      72     20                32265     8173    1302
     Max         178      73     21                32296     8199    1329
     Sum        1417     583    163               258163    65481   10503
 


     bravais-lattice index     =            0
     lattice parameter (alat)  =       7.1966  a.u.
     unit-cell volume          =    1911.4154 (a.u.)^3
     number of atoms/cell      =            2
     number of atomic types    =            1
     number of electrons       =        10.00
     number of Kohn-Sham states=            9
     kinetic-energy cutoff     =      40.0000  Ry
     charge density cutoff     =     400.0000  Ry
     convergence threshold     =      1.0E-10
     mixing beta               =       0.5000
     number of iterations used =            8  plain     mixing
     Exchange-correlation      = VDW-DF-OB86 ( 1  4 24  0 1 0)
     nstep                     =           50


     celldm(1)=   7.196587  celldm(2)=   0.000000  celldm(3)=   0.000000
     celldm(4)=   0.000000  celldm(5)=   0.000000  celldm(6)=   0.000000

     crystal axes: (cart. coord. in units of alat)
               a(1) = (   1.000000   0.000000   0.000000 )  
               a(2) = (  -0.500000   0.866025   0.000000 )  
               a(3) = (   0.000000   0.000000   5.921676 )  

     reciprocal axes: (cart. coord. in units 2 pi/alat)
               b(1) = (  1.000000  0.577350  0.000000 )  
               b(2) = (  0.000000  1.154701  0.000000 )  
               b(3) = (  0.000000  0.000000  0.168871 )  


     PseudoPot. # 1 for As read from file:
     ./pseudo/as_pbe_v1.uspp.F.UPF
     MD5 check sum: a55e54db9b6ff5e275ac1f228f32106c
     Pseudo is Ultrasoft + core correction, Zval =  5.0
     Generated by new atomic code, or converted to UPF format
     Using radial grid of  875 points,  6 beta functions with: 
                l(1) =   0
                l(2) =   0
                l(3) =   1
                l(4) =   1
                l(5) =   2
                l(6) =   2
     Q(r) pseudized with  8 coefficients,  rinner =    1.300   1.300   1.300
                                                       1.300   1.300

     vdW kernel table read from file vdW_kernel_table
     MD5 check sum: 96dc9944e45494894760bba5d2c8fbe1

     atomic species   valence    mass     pseudopotential
        As             5.00    74.92160     As( 1.00)

     12 Sym. Ops., with inversion, found ( 6 have fractional translation)


                                    s                        frac. trans.

      isym =  1     identity                                     

 cryst.   s( 1) = (     1          0          0      )
                  (     0          1          0      )
                  (     0          0          1      )

 cart.    s( 1) = (  1.0000000  0.0000000  0.0000000 )
                  (  0.0000000  1.0000000  0.0000000 )
                  (  0.0000000  0.0000000  1.0000000 )


      isym =  2     180 deg rotation - cart. axis [1,0,0]        

 cryst.   s( 2) = (     1          0          0      )    f =(  0.3333333 )
                  (    -1         -1          0      )       ( -0.3333333 )
                  (     0          0         -1      )       (  0.0000000 )

 cart.    s( 2) = (  1.0000000  0.0000000  0.0000000 )    f =(  0.5000000 )
                  (  0.0000000 -1.0000000  0.0000000 )       ( -0.2886751 )
                  (  0.0000000  0.0000000 -1.0000000 )       (  0.0000000 )


      isym =  3     120 deg rotation - cryst. axis [0,0,1]       

 cryst.   s( 3) = (     0          1          0      )
                  (    -1         -1          0      )
                  (     0          0          1      )

 cart.    s( 3) = ( -0.5000000 -0.8660254  0.0000000 )
                  (  0.8660254 -0.5000000  0.0000000 )
                  (  0.0000000  0.0000000  1.0000000 )


      isym =  4     120 deg rotation - cryst. axis [0,0,-1]      

 cryst.   s( 4) = (    -1         -1          0      )
                  (     1          0          0      )
                  (     0          0          1      )

 cart.    s( 4) = ( -0.5000000  0.8660254  0.0000000 )
                  ( -0.8660254 -0.5000000  0.0000000 )
                  (  0.0000000  0.0000000  1.0000000 )


      isym =  5     180 deg rotation - cryst. axis [0,1,0]       

 cryst.   s( 5) = (    -1         -1          0      )    f =(  0.3333333 )
                  (     0          1          0      )       ( -0.3333333 )
                  (     0          0         -1      )       (  0.0000000 )

 cart.    s( 5) = ( -0.5000000 -0.8660254  0.0000000 )    f =(  0.5000000 )
                  ( -0.8660254  0.5000000  0.0000000 )       ( -0.2886751 )
                  (  0.0000000  0.0000000 -1.0000000 )       (  0.0000000 )


      isym =  6     180 deg rotation - cryst. axis [1,1,0]       

 cryst.   s( 6) = (     0          1          0      )    f =(  0.3333333 )
                  (     1          0          0      )       ( -0.3333333 )
                  (     0          0         -1      )       (  0.0000000 )

 cart.    s( 6) = ( -0.5000000  0.8660254  0.0000000 )    f =(  0.5000000 )
                  (  0.8660254  0.5000000  0.0000000 )       ( -0.2886751 )
                  (  0.0000000  0.0000000 -1.0000000 )       (  0.0000000 )


      isym =  7     inversion                                    

 cryst.   s( 7) = (    -1          0          0      )    f =(  0.3333333 )
                  (     0         -1          0      )       ( -0.3333333 )
                  (     0          0         -1      )       (  0.0000000 )

 cart.    s( 7) = ( -1.0000000  0.0000000  0.0000000 )    f =(  0.5000000 )
                  (  0.0000000 -1.0000000  0.0000000 )       ( -0.2886751 )
                  (  0.0000000  0.0000000 -1.0000000 )       (  0.0000000 )


      isym =  8     inv. 180 deg rotation - cart. axis [1,0,0]   

 cryst.   s( 8) = (    -1          0          0      )
                  (     1          1          0      )
                  (     0          0          1      )

 cart.    s( 8) = ( -1.0000000  0.0000000  0.0000000 )
                  (  0.0000000  1.0000000  0.0000000 )
                  (  0.0000000  0.0000000  1.0000000 )


      isym =  9     inv. 120 deg rotation - cryst. axis [0,0,1]  

 cryst.   s( 9) = (     0         -1          0      )    f =(  0.3333333 )
                  (     1          1          0      )       ( -0.3333333 )
                  (     0          0         -1      )       (  0.0000000 )

 cart.    s( 9) = (  0.5000000  0.8660254  0.0000000 )    f =(  0.5000000 )
                  ( -0.8660254  0.5000000  0.0000000 )       ( -0.2886751 )
                  (  0.0000000  0.0000000 -1.0000000 )       (  0.0000000 )


      isym = 10     inv. 120 deg rotation - cryst. axis [0,0,-1] 

 cryst.   s(10) = (     1          1          0      )    f =(  0.3333333 )
                  (    -1          0          0      )       ( -0.3333333 )
                  (     0          0         -1      )       (  0.0000000 )

 cart.    s(10) = (  0.5000000 -0.8660254  0.0000000 )    f =(  0.5000000 )
                  (  0.8660254  0.5000000  0.0000000 )       ( -0.2886751 )
                  (  0.0000000  0.0000000 -1.0000000 )       (  0.0000000 )


      isym = 11     inv. 180 deg rotation - cryst. axis [0,1,0]  

 cryst.   s(11) = (     1          1          0      )
                  (     0         -1          0      )
                  (     0          0          1      )

 cart.    s(11) = (  0.5000000  0.8660254  0.0000000 )
                  (  0.8660254 -0.5000000  0.0000000 )
                  (  0.0000000  0.0000000  1.0000000 )


      isym = 12     inv. 180 deg rotation - cryst. axis [1,1,0]  

 cryst.   s(12) = (     0         -1          0      )
                  (    -1          0          0      )
                  (     0          0          1      )

 cart.    s(12) = (  0.5000000 -0.8660254  0.0000000 )
                  ( -0.8660254 -0.5000000  0.0000000 )
                  (  0.0000000  0.0000000  1.0000000 )


     point group D_3d (-3m) 
     there are  6 classes
     the character table:

       E     2C3   3C2'  i     2S6   3s_d 
A_1g   1.00  1.00  1.00  1.00  1.00  1.00
A_2g   1.00  1.00 -1.00  1.00  1.00 -1.00
E_g    2.00 -1.00  0.00  2.00 -1.00  0.00
A_1u   1.00  1.00  1.00 -1.00 -1.00 -1.00
A_2u   1.00  1.00 -1.00 -1.00 -1.00  1.00
E_u    2.00 -1.00  0.00 -2.00  1.00  0.00

     the symmetry operations in each class and the name of the first element:

     E        1
                                                                 
     2C3      3    4
                                                                 
     3C2'     2    5    6
                                                                 
     i        7
                                                                 
     2S6      9   10
                                                                 
     3s_d     8   11   12
                                                                 

   Cartesian axes

     site n.     atom                  positions (alat units)
         1           As  tau(   1) = (   0.5000000   0.2886751  -0.1699476  )
         2           As  tau(   2) = (   0.0000000   0.0000000   0.1699476  )

   Crystallographic axes

     site n.     atom                  positions (cryst. coord.)
         1           As  tau(   1) = (  0.6666667  0.3333333 -0.0286992  )
         2           As  tau(   2) = (  0.0000000  0.0000000  0.0286992  )

     number of k points=    24  Marzari-Vanderbilt smearing, width (Ry)=  0.0100
                       cart. coord. in units 2pi/alat
        k(    1) = (   0.0000000   0.0000000   0.0000000), wk =   0.0102041
        k(    2) = (   0.0000000   0.0824786   0.0000000), wk =   0.0612245
        k(    3) = (   0.0000000   0.1649572   0.0000000), wk =   0.0612245
        k(    4) = (   0.0000000   0.2474358   0.0000000), wk =   0.0612245
        k(    5) = (   0.0000000   0.3299144   0.0000000), wk =   0.0612245
        k(    6) = (   0.0000000   0.4123930   0.0000000), wk =   0.0612245
        k(    7) = (   0.0000000   0.4948717   0.0000000), wk =   0.0612245
        k(    8) = (   0.0000000  -0.5773503   0.0000000), wk =   0.0306122
        k(    9) = (   0.0714286   0.1237179   0.0000000), wk =   0.0612245
        k(   10) = (   0.0714286   0.2061965   0.0000000), wk =   0.1224490
        k(   11) = (   0.0714286   0.2886751   0.0000000), wk =   0.1224490
        k(   12) = (   0.0714286   0.3711537   0.0000000), wk =   0.1224490
        k(   13) = (   0.0714286   0.4536324   0.0000000), wk =   0.1224490
        k(   14) = (   0.0714286   0.5361110   0.0000000), wk =   0.1224490
        k(   15) = (   0.1428571   0.2474358   0.0000000), wk =   0.0612245
        k(   16) = (   0.1428571   0.3299144   0.0000000), wk =   0.1224490
        k(   17) = (   0.1428571   0.4123930   0.0000000), wk =   0.1224490
        k(   18) = (   0.1428571   0.4948717   0.0000000), wk =   0.1224490
        k(   19) = (   0.1428571   0.5773503   0.0000000), wk =   0.0612245
        k(   20) = (   0.2142857   0.3711537   0.0000000), wk =   0.0612245
        k(   21) = (   0.2142857   0.4536324   0.0000000), wk =   0.1224490
        k(   22) = (   0.2142857   0.5361110   0.0000000), wk =   0.1224490
        k(   23) = (   0.2857143   0.4948717   0.0000000), wk =   0.0612245
        k(   24) = (   0.2857143   0.5773503   0.0000000), wk =   0.0612245

                       cryst. coord.
        k(    1) = (   0.0000000   0.0000000   0.0000000), wk =   0.0102041
        k(    2) = (   0.0000000   0.0714286   0.0000000), wk =   0.0612245
        k(    3) = (   0.0000000   0.1428571   0.0000000), wk =   0.0612245
        k(    4) = (   0.0000000   0.2142857   0.0000000), wk =   0.0612245
        k(    5) = (   0.0000000   0.2857143   0.0000000), wk =   0.0612245
        k(    6) = (   0.0000000   0.3571429   0.0000000), wk =   0.0612245
        k(    7) = (   0.0000000   0.4285714   0.0000000), wk =   0.0612245
        k(    8) = (   0.0000000  -0.5000000   0.0000000), wk =   0.0306122
        k(    9) = (   0.0714286   0.0714286   0.0000000), wk =   0.0612245
        k(   10) = (   0.0714286   0.1428571   0.0000000), wk =   0.1224490
        k(   11) = (   0.0714286   0.2142857   0.0000000), wk =   0.1224490
        k(   12) = (   0.0714286   0.2857143   0.0000000), wk =   0.1224490
        k(   13) = (   0.0714286   0.3571429   0.0000000), wk =   0.1224490
        k(   14) = (   0.0714286   0.4285714   0.0000000), wk =   0.1224490
        k(   15) = (   0.1428571   0.1428571   0.0000000), wk =   0.0612245
        k(   16) = (   0.1428571   0.2142857   0.0000000), wk =   0.1224490
        k(   17) = (   0.1428571   0.2857143   0.0000000), wk =   0.1224490
        k(   18) = (   0.1428571   0.3571429   0.0000000), wk =   0.1224490
        k(   19) = (   0.1428571   0.4285714   0.0000000), wk =   0.0612245
        k(   20) = (   0.2142857   0.2142857   0.0000000), wk =   0.0612245
        k(   21) = (   0.2142857   0.2857143   0.0000000), wk =   0.1224490
        k(   22) = (   0.2142857   0.3571429   0.0000000), wk =   0.1224490
        k(   23) = (   0.2857143   0.2857143   0.0000000), wk =   0.0612245
        k(   24) = (   0.2857143   0.3571429   0.0000000), wk =   0.0612245

     Dense  grid:   258163 G-vectors     FFT dimensions: (  45,  45, 288)

     Smooth grid:    65481 G-vectors     FFT dimensions: (  30,  30, 180)

     Largest allocated arrays     est. size (Mb)     dimensions
        Kohn-Sham Wavefunctions         0.15 Mb     (    1057,    9)
        NL pseudopotentials             0.58 Mb     (    1057,   36)
        Each V/rho on FFT grid          1.11 Mb     (   72900)
        Each G-vector array             0.25 Mb     (   32265)
        G-vector shells                 0.25 Mb     (   32265)
     Largest temporary arrays     est. size (Mb)     dimensions
        Auxiliary wavefunctions         0.58 Mb     (    1057,   36)
        Each subspace H/S matrix        0.00 Mb     (      18,   18)
        Each <psi_i|beta_j> matrix      0.00 Mb     (      36,    9)
        Arrays for rho mixing           8.90 Mb     (   72900,    8)

     Initial potential from superposition of free atoms

     starting charge    9.99951, renormalised to   10.00000

     negative rho (up, down):  7.761E-05 0.000E+00


     ************************************************************************
     *
     * You are using vdW-DF for exchange-correlation in this calculation.
     * Please cite the following three references that made this development
     * possible:
     *
     *   M. Dion, H. Rydberg, E. Schroder, D. C. Langreth, and
     *   B. I. Lundqvist, Phys. Rev. Lett. 92, 246401 (2004).
     *
     *   T. Thonhauser, V. R. Cooper, S. Li, A. Puzder, P. Hyldgaard, and
     *   D. C. Langreth, Phys. Rev. B 76, 125112 (2007).
     *
     *   G. Roman-Perez and J. M. Soler, Phys. Rev. Lett. 103, 096102 (2009).
     *
     *
     * If you are using vdW-DF2, please also cite:
     *
     *   K. Lee, E. D. Murray, L. Kong, B. I. Lundqvist, and
     *   D. C. Langreth, Phys. Rev. B 82, 081101(R) (2010).
     *
     *
     * If you are calculating the stress with vdW-DF, please also cite:
     *
     *   R. Sabatini, E. Kucukbenli, B. Kolb, T. Thonhauser, and
     *   S. de Gironcoli, J. Phys.: Condens. Matter 24, 424209 (2012).
     *
     ************************************************************************

     Carrying out vdW-DF run using the following parameters:

     Nqs =      20    Nr_points =    1024   r_max =   100.000
     q_mesh =
               0.00001000     0.04494208     0.09755937     0.15916263
               0.23128650     0.31572767     0.41458969     0.53033537
               0.66584808     0.82450364     1.01025438     1.22772762
               1.48234092     1.78043706     2.12944203     2.53805004
               3.01644009     3.57652955     4.23227104     5.00000000

     Gradients computed in reciprocal space

     ************************************************************************




     ----------------------------------------------------------------

     Non-local correlation energy =              0.842400913119498

     ----------------------------------------------------------------

     Starting wfc are    8 randomized atomic wfcs +    1 random wfc

     total cpu time spent up to now is        3.5 secs

     per-process dynamical memory:    38.2 Mb

     Self-consistent Calculation

     iteration #  1     ecut=    40.00 Ry     beta=0.50
     Davidson diagonalization with overlap
     ethr =  1.00E-02,  avg # of iterations =  5.5

     Threshold (ethr) on eigenvalues was too large:
     Diagonalizing with lowered threshold

     Davidson diagonalization with overlap
     ethr =  2.27E-04,  avg # of iterations =  3.6

     negative rho (up, down):  2.449E-05 0.000E+00


     ----------------------------------------------------------------

     Non-local correlation energy =              0.845459045223725

     ----------------------------------------------------------------


     total cpu time spent up to now is        6.5 secs

     total energy              =     -80.28509664 Ry
     Harris-Foulkes estimate   =     -80.28935042 Ry
     estimated scf accuracy    <       0.02164699 Ry

     iteration #  2     ecut=    40.00 Ry     beta=0.50
     Davidson diagonalization with overlap
     ethr =  2.16E-04,  avg # of iterations =  1.1

     negative rho (up, down):  6.596E-05 0.000E+00


     ----------------------------------------------------------------

     Non-local correlation energy =              0.847570119012137

     ----------------------------------------------------------------


     total cpu time spent up to now is        8.0 secs

     total energy              =     -80.28528188 Ry
     Harris-Foulkes estimate   =     -80.28587323 Ry
     estimated scf accuracy    <       0.00397194 Ry

     iteration #  3     ecut=    40.00 Ry     beta=0.50
     Davidson diagonalization with overlap
     ethr =  3.97E-05,  avg # of iterations =  5.1

     negative rho (up, down):  4.217E-05 0.000E+00


     ----------------------------------------------------------------

     Non-local correlation energy =              0.847425697710202

     ----------------------------------------------------------------


     total cpu time spent up to now is        9.7 secs

     total energy              =     -80.28560161 Ry
     Harris-Foulkes estimate   =     -80.28561783 Ry
     estimated scf accuracy    <       0.00008580 Ry

     iteration #  4     ecut=    40.00 Ry     beta=0.50
     Davidson diagonalization with overlap
     ethr =  8.58E-07,  avg # of iterations =  6.5

     negative rho (up, down):  2.474E-05 0.000E+00


     ----------------------------------------------------------------

     Non-local correlation energy =              0.847411715483879

     ----------------------------------------------------------------


     total cpu time spent up to now is       12.0 secs

     total energy              =     -80.28569187 Ry
     Harris-Foulkes estimate   =     -80.28569263 Ry
     estimated scf accuracy    <       0.00000412 Ry

     iteration #  5     ecut=    40.00 Ry     beta=0.50
     Davidson diagonalization with overlap
     ethr =  4.12E-08,  avg # of iterations =  4.0

     negative rho (up, down):  1.970E-05 0.000E+00


     ----------------------------------------------------------------

     Non-local correlation energy =              0.847395596848679

     ----------------------------------------------------------------


     total cpu time spent up to now is       13.9 secs

     total energy              =     -80.28569495 Ry
     Harris-Foulkes estimate   =     -80.28569480 Ry
     estimated scf accuracy    <       0.00000063 Ry

     iteration #  6     ecut=    40.00 Ry     beta=0.50
     Davidson diagonalization with overlap
     ethr =  6.31E-09,  avg # of iterations =  2.2

     negative rho (up, down):  1.879E-05 0.000E+00


     ----------------------------------------------------------------

     Non-local correlation energy =              0.847383271194822

     ----------------------------------------------------------------


     total cpu time spent up to now is       15.5 secs

     total energy              =     -80.28569529 Ry
     Harris-Foulkes estimate   =     -80.28569506 Ry
     estimated scf accuracy    <       0.00000008 Ry

     iteration #  7     ecut=    40.00 Ry     beta=0.50
     Davidson diagonalization with overlap
     ethr =  8.12E-10,  avg # of iterations =  3.5

     negative rho (up, down):  1.883E-05 0.000E+00


     ----------------------------------------------------------------

     Non-local correlation energy =              0.847382145308591

     ----------------------------------------------------------------


     total cpu time spent up to now is       17.2 secs

     total energy              =     -80.28569530 Ry
     Harris-Foulkes estimate   =     -80.28569531 Ry
     estimated scf accuracy    <          2.2E-09 Ry

     iteration #  8     ecut=    40.00 Ry     beta=0.50
     Davidson diagonalization with overlap
     ethr =  2.17E-11,  avg # of iterations =  4.2

     negative rho (up, down):  1.926E-05 0.000E+00


     ----------------------------------------------------------------

     Non-local correlation energy =              0.847382321058969

     ----------------------------------------------------------------


     total cpu time spent up to now is       19.1 secs

     End of self-consistent calculation

          k = 0.0000 0.0000 0.0000 (  8215 PWs)   bands (ev):

   -16.7674 -10.6282  -4.3992  -4.3992  -3.7278  -2.9330  -0.7780  -0.7780
     0.8471

     occupation numbers 
     1.0000   1.0000   1.0000   1.0000   1.0036   0.0000   0.0000   0.0000
     0.0000

          k = 0.0000 0.0825 0.0000 (  8187 PWs)   bands (ev):

   -16.7095 -10.6555  -4.9895  -4.5200  -3.7153  -2.3807  -0.8801  -0.6320
     0.9197

     occupation numbers 
     1.0000   1.0000   1.0000   1.0000   0.9658   0.0000   0.0000   0.0000
     0.0000

          k = 0.0000 0.1650 0.0000 (  8169 PWs)   bands (ev):

   -16.5371 -10.7628  -5.8595  -4.8137  -3.7028  -1.9618  -0.7123  -0.2855
     1.1309

     occupation numbers 
     1.0000   1.0000   1.0000   1.0000   0.9206   0.0000   0.0000   0.0000
     0.0000

          k = 0.0000 0.2474 0.0000 (  8137 PWs)   bands (ev):

   -16.2552 -11.0153  -6.5334  -5.1620  -3.7759  -2.1396  -0.1289   0.0867
     1.4376

     occupation numbers 
     1.0000   1.0000   1.0000   1.0000   1.0787   0.0000   0.0000   0.0000
     0.0000

          k = 0.0000 0.3299 0.0000 (  8144 PWs)   bands (ev):

   -15.8749 -11.4612  -6.8881  -5.4833  -4.0333  -2.2539   0.0882   0.3593
     1.8601

     occupation numbers 
     1.0000   1.0000   1.0000   1.0000   1.0007   0.0000   0.0000   0.0000
     0.0000

          k = 0.0000 0.4124 0.0000 (  8152 PWs)   bands (ev):

   -15.4220 -12.0509  -6.9482  -5.7338  -4.4251  -2.2168  -0.0334   0.5048
     2.4355

     occupation numbers 
     1.0000   1.0000   1.0000   1.0000   1.0000   0.0000   0.0000   0.0000
     0.0000

          k = 0.0000 0.4949 0.0000 (  8180 PWs)   bands (ev):

   -14.9692 -12.6297  -6.8491  -5.8911  -4.7898  -2.1470  -0.1754   0.5624
     2.6973

     occupation numbers 
     1.0000   1.0000   1.0000   1.0000   1.0000   0.0000   0.0000   0.0000
     0.0000

          k = 0.0000-0.5774 0.0000 (  8172 PWs)   bands (ev):

   -14.7389 -12.9094  -6.7783  -5.9445  -4.9469  -2.1187  -0.2240   0.5760
     2.7088

     occupation numbers 
     1.0000   1.0000   1.0000   1.0000   1.0000   0.0000   0.0000   0.0000
     0.0000

          k = 0.0714 0.1237 0.0000 (  8191 PWs)   bands (ev):

   -16.5943 -10.7227  -5.6125  -4.7795  -3.6999  -1.8307  -1.0595  -0.2906
     1.0633

     occupation numbers 
     1.0000   1.0000   1.0000   1.0000   0.9091   0.0000   0.0000   0.0000
     0.0000

          k = 0.0714 0.2062 0.0000 (  8184 PWs)   bands (ev):

   -16.3669 -10.9025  -6.2755  -5.1902  -3.7157  -1.6887  -0.8185   0.1656
     1.3304

     occupation numbers 
     1.0000   1.0000   1.0000   1.0000   0.9673   0.0000   0.0000   0.0000
     0.0000

          k = 0.0714 0.2887 0.0000 (  8161 PWs)   bands (ev):

   -16.0347 -11.2553  -6.7298  -5.5858  -3.8578  -1.8987  -0.2484   0.3645
     1.6873

     occupation numbers 
     1.0000   1.0000   1.0000   1.0000   1.0516   0.0000   0.0000   0.0000
     0.0000

          k = 0.0714 0.3712 0.0000 (  8149 PWs)   bands (ev):

   -15.6139 -11.7827  -6.9147  -5.8834  -4.1778  -1.9452   0.0720   0.2624
     2.2015

     occupation numbers 
     1.0000   1.0000   1.0000   1.0000   1.0000   0.0000   0.0000   0.0000
     0.0000

          k = 0.0714 0.4536 0.0000 (  8172 PWs)   bands (ev):

   -15.1456 -12.3855  -6.9179  -6.0303  -4.5857  -1.8692  -0.1199   0.3961
     2.7212

     occupation numbers 
     1.0000   1.0000   1.0000   1.0000   1.0000   0.0000   0.0000   0.0000
     0.0000

          k = 0.0714 0.5361 0.0000 (  8168 PWs)   bands (ev):

   -14.7586 -12.8608  -6.8843  -6.0282  -4.9038  -1.7917  -0.2942   0.5032
     2.7768

     occupation numbers 
     1.0000   1.0000   1.0000   1.0000   1.0000   0.0000   0.0000   0.0000
     0.0000

          k = 0.1429 0.2474 0.0000 (  8159 PWs)   bands (ev):

   -16.0884 -11.1846  -6.5911  -5.7700  -3.7909  -1.1588  -0.9983   0.4526
     1.6542

     occupation numbers 
     1.0000   1.0000   1.0000   1.0000   1.0832   0.0000   0.0000   0.0000
     0.0000

          k = 0.1429 0.3299 0.0000 (  8138 PWs)   bands (ev):

   -15.7120 -11.6296  -6.7535  -6.2521  -4.0047  -1.2596  -0.4359   0.3567
     2.0957

     occupation numbers 
     1.0000   1.0000   1.0000   1.0000   1.0017   0.0000   0.0000   0.0000
     0.0000

          k = 0.1429 0.4124 0.0000 (  8156 PWs)   bands (ev):

   -15.2608 -12.1924  -6.9296  -6.3737  -4.3650  -1.2400  -0.1449   0.1823
     2.7145

     occupation numbers 
     1.0000   1.0000   1.0000   1.0000   1.0000   0.0000   0.0000   0.0000
     0.0000

          k = 0.1429 0.4949 0.0000 (  8168 PWs)   bands (ev):

   -14.8001 -12.7515  -7.1241  -6.1870  -4.7714  -1.0992  -0.4169   0.3803
     2.9803

     occupation numbers 
     1.0000   1.0000   1.0000   1.0000   1.0000   0.0000   0.0000   0.0000
     0.0000

          k = 0.1429 0.5774 0.0000 (  8196 PWs)   bands (ev):

   -14.5551 -13.0350  -7.1970  -6.0392  -4.9877  -0.9719  -0.6117   0.4815
     2.9601

     occupation numbers 
     1.0000   1.0000   1.0000   1.0000   1.0000   0.0000   0.0000   0.0000
     0.0000

          k = 0.2143 0.3712 0.0000 (  8141 PWs)   bands (ev):

   -15.3006 -12.1176  -6.8858  -6.5734  -4.2752  -0.6287  -0.6258   0.3177
     2.5862

     occupation numbers 
     1.0000   1.0000   1.0000   1.0000   1.0000   0.0000   0.0000   0.0000
     0.0000

          k = 0.2143 0.4536 0.0000 (  8154 PWs)   bands (ev):

   -14.8312 -12.6632  -7.3162  -6.2869  -4.6494  -0.8286  -0.2352   0.4115
     3.1120

     occupation numbers 
     1.0000   1.0000   1.0000   1.0000   1.0000   0.0000   0.0000   0.0000
     0.0000

          k = 0.2143 0.5361 0.0000 (  8194 PWs)   bands (ev):

   -14.4089 -13.1328  -7.5396  -5.9713  -5.0115  -0.9556  -0.0755   0.5236
     3.3220

     occupation numbers 
     1.0000   1.0000   1.0000   1.0000   1.0000   0.0000   0.0000   0.0000
     0.0000

          k = 0.2857 0.4949 0.0000 (  8181 PWs)   bands (ev):

   -14.3566 -13.1617  -7.6762  -5.9445  -5.0048  -1.0957   0.2921   0.6221
     3.7005

     occupation numbers 
     1.0000   1.0000   1.0000   1.0000   1.0000   0.0000   0.0000   0.0000
     0.0000

          k = 0.2857 0.5774 0.0000 (  8177 PWs)   bands (ev):

   -14.0149 -13.5111  -7.8057  -5.6689  -5.2781  -1.2140   0.5739   0.6363
     3.8916

     occupation numbers 
     1.0000   1.0000   1.0000   1.0000   1.0000   0.0000   0.0000   0.0000
     0.0000

     the Fermi energy is    -3.6012 ev

!    total energy              =     -80.28569535 Ry
     Harris-Foulkes estimate   =     -80.28569530 Ry
     estimated scf accuracy    <          4.2E-11 Ry

     The total energy is the sum of the following terms:

     one-electron contribution =    -143.40056749 Ry
     hartree contribution      =      73.25029663 Ry
     xc contribution           =     -62.68751438 Ry
     ewald contribution        =      52.55161381 Ry
     smearing contrib. (-TS)   =       0.00047608 Ry

     convergence has been achieved in   8 iterations

     Forces acting on atoms (Ry/au):


     negative rho (up, down):  1.926E-05 0.000E+00


     ----------------------------------------------------------------

     Non-local correlation energy =              0.847382321058969

     ----------------------------------------------------------------

     atom    1 type  1   force =     0.00000000    0.00000000   -0.02354132
     atom    2 type  1   force =     0.00000000    0.00000000    0.02354132
     The non-local contrib.  to forces
     atom    1 type  1   force =     0.00000000    0.00000000   -0.57359739
     atom    2 type  1   force =     0.00000000    0.00000000    0.57359739
     The ionic contribution  to forces
     atom    1 type  1   force =    -0.00000000   -0.00000000   -4.81651484
     atom    2 type  1   force =     0.00000000    0.00000000    4.81651484
     The local contribution  to forces
     atom    1 type  1   force =     0.00000000   -0.00000000    5.42456938
     atom    2 type  1   force =     0.00000000    0.00000000   -5.42456938
     The core correction contribution to forces
     atom    1 type  1   force =    -0.00000000    0.00000000   -0.05799599
     atom    2 type  1   force =     0.00000000   -0.00000000    0.05799601
     The Hubbard contrib.    to forces
     atom    1 type  1   force =     0.00000000    0.00000000    0.00000000
     atom    2 type  1   force =     0.00000000    0.00000000    0.00000000
     The SCF correction term to forces
     atom    1 type  1   force =     0.00000000    0.00000000   -0.00000248
     atom    2 type  1   force =     0.00000000    0.00000000    0.00000248

     Total force =     0.033292     Total SCF correction =     0.000004


     entering subroutine stress ...


     negative rho (up, down):  1.926E-05 0.000E+00


     ----------------------------------------------------------------

     Non-local correlation energy =              0.847382321058969

     ----------------------------------------------------------------

          total   stress  (Ry/bohr**3)                   (kbar)     P=   -6.32
  -0.00007921  -0.00000000   0.00000000        -11.65     -0.00      0.00
  -0.00000000  -0.00007921  -0.00000000         -0.00    -11.65     -0.00
   0.00000000   0.00000000   0.00002960          0.00      0.00      4.35

     kinetic stress (kbar)    416.20      0.00      0.00
                                0.00    416.20      0.00
                                0.00      0.00    464.00

     local   stress (kbar) -10180.83      0.00     -0.00
                                0.00 -10180.83     -0.00
                               -0.00     -0.00  12823.49

     nonloc. stress (kbar)   -891.25      0.00     -0.00
                                0.00   -891.25     -0.00
                                0.00      0.00   -905.62

     hartree stress (kbar)   5541.54      0.00     -0.00
                                0.00   5541.54      0.00
                               -0.00      0.00  -5445.64

     exc-cor stress (kbar)   4006.46      0.00     -0.00
                                0.00   4006.46      0.00
                               -0.00      0.00   4003.86

     corecor stress (kbar)  -4285.08      0.00     -0.00
                                0.00  -4285.08     -0.00
                               -0.00     -0.00  -4286.71

     ewald   stress (kbar)   5359.78      0.00     -0.00
                                0.00   5359.78      0.00
                               -0.00      0.00  -6675.11

     hubbard stress (kbar)      0.00      0.00      0.00
                                0.00      0.00      0.00
                                0.00      0.00      0.00

     london  stress (kbar)      0.00      0.00      0.00
                                0.00      0.00      0.00
                                0.00      0.00      0.00

     XDM     stress (kbar)      0.00      0.00      0.00
                                0.00      0.00      0.00
                                0.00      0.00      0.00

     dft-nl  stress (kbar)     21.53      0.00      0.00
                                0.00     21.53      0.00
                                0.00      0.00     26.08



     BFGS Geometry Optimization

     number of scf cycles    =   1
     number of bfgs steps    =   0

     enthalpy new            =     -80.2856953468 Ry

     new trust radius        =       0.0235413222 bohr
     new conv_thr            =            1.0E-10 Ry

     new unit-cell volume =   1905.26165 a.u.^3 (   282.33064 Ang^3 )

CELL_PARAMETERS (angstrom)
   3.800728871  -0.000000000   0.000000000
  -1.900364436   3.291527755   0.000000000
   0.000000000  -0.000000000  22.568027763

ATOMIC_POSITIONS (angstrom)
As       1.900364436   1.097175919  -0.660151926
As       0.000000000  -0.000000000   0.660151921



     Writing output data file aiida.save
     NEW-OLD atomic charge density approx. for the potential

     negative rho (up, down):  3.320E-05 0.000E+00


     ----------------------------------------------------------------

     Non-local correlation energy =              0.847262046327391

     ----------------------------------------------------------------

     extrapolated charge    9.96770, renormalised to   10.00000

     total cpu time spent up to now is       30.8 secs

     per-process dynamical memory:    42.4 Mb

     Self-consistent Calculation

     iteration #  1     ecut=    40.00 Ry     beta=0.50
     Davidson diagonalization with overlap
     ethr =  1.00E-06,  avg # of iterations =  8.5

     negative rho (up, down):  2.339E-05 0.000E+00


     ----------------------------------------------------------------

     Non-local correlation energy =              0.847528261453362

     ----------------------------------------------------------------


     total cpu time spent up to now is       33.8 secs

     total energy              =     -80.28664754 Ry
     Harris-Foulkes estimate   =     -80.72978104 Ry
     estimated scf accuracy    <       0.00051544 Ry

     iteration #  2     ecut=    40.00 Ry     beta=0.50
     Davidson diagonalization with overlap
     ethr =  5.15E-06,  avg # of iterations =  6.8

     negative rho (up, down):  2.172E-05 0.000E+00


     ----------------------------------------------------------------

     Non-local correlation energy =              0.847370821905170

     ----------------------------------------------------------------


     total cpu time spent up to now is       35.9 secs

     total energy              =     -80.28719860 Ry
     Harris-Foulkes estimate   =     -80.28730961 Ry
     estimated scf accuracy    <       0.00027762 Ry

     iteration #  3     ecut=    40.00 Ry     beta=0.50
     Davidson diagonalization with overlap
     ethr =  2.78E-06,  avg # of iterations =  1.7

     negative rho (up, down):  1.982E-05 0.000E+00


     ----------------------------------------------------------------

     Non-local correlation energy =              0.847166066822782

     ----------------------------------------------------------------


     total cpu time spent up to now is       37.4 secs

     total energy              =     -80.28717732 Ry
     Harris-Foulkes estimate   =     -80.28721724 Ry
     estimated scf accuracy    <       0.00005662 Ry

     iteration #  4     ecut=    40.00 Ry     beta=0.50
     Davidson diagonalization with overlap
     ethr =  5.66E-07,  avg # of iterations =  3.3

     negative rho (up, down):  1.892E-05 0.000E+00


     ----------------------------------------------------------------

     Non-local correlation energy =              0.847203428184874

     ----------------------------------------------------------------


     total cpu time spent up to now is       39.2 secs

     total energy              =     -80.28719541 Ry
     Harris-Foulkes estimate   =     -80.28719950 Ry
     estimated scf accuracy    <       0.00000713 Ry

     iteration #  5     ecut=    40.00 Ry     beta=0.50
     Davidson diagonalization with overlap
     ethr =  7.13E-08,  avg # of iterations =  2.0

     negative rho (up, down):  1.893E-05 0.000E+00


     ----------------------------------------------------------------

     Non-local correlation energy =              0.847210881577085

     ----------------------------------------------------------------


     total cpu time spent up to now is       40.7 secs

     total energy              =     -80.28719639 Ry
     Harris-Foulkes estimate   =     -80.28719658 Ry
     estimated scf accuracy    <       0.00000018 Ry

     iteration #  6     ecut=    40.00 Ry     beta=0.50
     Davidson diagonalization with overlap
     ethr =  1.77E-09,  avg # of iterations =  3.0

     negative rho (up, down):  1.886E-05 0.000E+00


     ----------------------------------------------------------------

     Non-local correlation energy =              0.847212605287922

     ----------------------------------------------------------------


     total cpu time spent up to now is       42.5 secs

     total energy              =     -80.28719643 Ry
     Harris-Foulkes estimate   =     -80.28719645 Ry
     estimated scf accuracy    <          9.6E-09 Ry

     iteration #  7     ecut=    40.00 Ry     beta=0.50
     Davidson diagonalization with overlap
     ethr =  9.63E-11,  avg # of iterations =  2.9

     negative rho (up, down):  1.885E-05 0.000E+00


     ----------------------------------------------------------------

     Non-local correlation energy =              0.847212944679110

     ----------------------------------------------------------------


     total cpu time spent up to now is       44.1 secs

     total energy              =     -80.28719640 Ry
     Harris-Foulkes estimate   =     -80.28719643 Ry
     estimated scf accuracy    <          6.3E-10 Ry

     iteration #  8     ecut=    40.00 Ry     beta=0.50
     Davidson diagonalization with overlap
     ethr =  6.34E-12,  avg # of iterations =  3.5

     negative rho (up, down):  1.885E-05 0.000E+00


     ----------------------------------------------------------------

     Non-local correlation energy =              0.847213142097734

     ----------------------------------------------------------------


     total cpu time spent up to now is       45.9 secs

     End of self-consistent calculation

          k = 0.0000 0.0000 0.0000 (  8215 PWs)   bands (ev):

   -16.6842 -10.6689  -4.2716  -4.2716  -3.7824  -2.7945  -0.7230  -0.7230
     0.8540

     occupation numbers 
     1.0000   1.0000   1.0000   1.0000   1.0222   0.0000   0.0000   0.0000
     0.0000

          k = 0.0000 0.0826 0.0000 (  8187 PWs)   bands (ev):

   -16.6261 -10.6924  -4.8662  -4.3934  -3.7681  -2.2474  -0.8298  -0.5808
     0.9279

     occupation numbers 
     1.0000   1.0000   1.0000   1.0000   0.9841   0.0000   0.0000   0.0000
     0.0000

          k = 0.0000 0.1653 0.0000 (  8169 PWs)   bands (ev):

   -16.4535 -10.7870  -5.7513  -4.6891  -3.7497  -1.8670  -0.6514  -0.2468
     1.1411

     occupation numbers 
     1.0000   1.0000   1.0000   1.0000   0.9200   0.0000   0.0000   0.0000
     0.0000

          k = 0.0000 0.2479 0.0000 (  8137 PWs)   bands (ev):

   -16.1712 -11.0164  -6.4511  -5.0392  -3.8104  -2.0800  -0.0804   0.1054
     1.4473

     occupation numbers 
     1.0000   1.0000   1.0000   1.0000   1.0688   0.0000   0.0000   0.0000
     0.0000

          k = 0.0000 0.3306 0.0000 (  8144 PWs)   bands (ev):

   -15.7905 -11.4340  -6.8365  -5.3619  -4.0528  -2.2082   0.1028   0.3567
     1.8665

     occupation numbers 
     1.0000   1.0000   1.0000   1.0000   1.0017   0.0000   0.0000   0.0000
     0.0000

          k = 0.0000 0.4132 0.0000 (  8152 PWs)   bands (ev):

   -15.3374 -12.0006  -6.9211  -5.6133  -4.4377  -2.1637  -0.0531   0.4861
     2.4426

     occupation numbers 
     1.0000   1.0000   1.0000   1.0000   1.0000   0.0000   0.0000   0.0000
     0.0000

          k = 0.0000 0.4959 0.0000 (  8180 PWs)   bands (ev):

   -14.8846 -12.5663  -6.8355  -5.7712  -4.8020  -2.0744  -0.2268   0.5347
     2.6923

     occupation numbers 
     1.0000   1.0000   1.0000   1.0000   1.0000   0.0000   0.0000   0.0000
     0.0000

          k =-0.0000-0.5785-0.0000 (  8172 PWs)   bands (ev):

   -14.6542 -12.8420  -6.7687  -5.8248  -4.9598  -2.0356  -0.2895   0.5455
     2.6970

     occupation numbers 
     1.0000   1.0000   1.0000   1.0000   1.0000   0.0000   0.0000   0.0000
     0.0000

          k = 0.0716 0.1240 0.0000 (  8191 PWs)   bands (ev):

   -16.5108 -10.7513  -5.4986  -4.6561  -3.7490  -1.7073  -1.0189  -0.2456
     1.0741

     occupation numbers 
     1.0000   1.0000   1.0000   1.0000   0.9170   0.0000   0.0000   0.0000
     0.0000

          k = 0.0716 0.2066 0.0000 (  8184 PWs)   bands (ev):

   -16.2830 -10.9130  -6.1816  -5.0712  -3.7560  -1.6163  -0.7622   0.1942
     1.3428

     occupation numbers 
     1.0000   1.0000   1.0000   1.0000   0.9435   0.0000   0.0000   0.0000
     0.0000

          k = 0.0716 0.2892 0.0000 (  8161 PWs)   bands (ev):

   -15.9504 -11.2396  -6.6643  -5.4705  -3.8839  -1.8500  -0.2131   0.3711
     1.6959

     occupation numbers 
     1.0000   1.0000   1.0000   1.0000   1.0660   0.0000   0.0000   0.0000
     0.0000

          k = 0.0716 0.3719 0.0000 (  8149 PWs)   bands (ev):

   -15.5294 -11.7413  -6.8751  -5.7721  -4.1915  -1.9005   0.0797   0.2459
     2.2076

     occupation numbers 
     1.0000   1.0000   1.0000   1.0000   1.0000   0.0000   0.0000   0.0000
     0.0000

          k = 0.0716 0.4545 0.0000 (  8172 PWs)   bands (ev):

   -15.0610 -12.3266  -6.8899  -5.9265  -4.5950  -1.8099  -0.1513   0.3718
     2.7249

     occupation numbers 
     1.0000   1.0000   1.0000   1.0000   1.0000   0.0000   0.0000   0.0000
     0.0000

          k = 0.0716 0.5372 0.0000 (  8168 PWs)   bands (ev):

   -14.6741 -12.7937  -6.8539  -5.9335  -4.9147  -1.7123  -0.3498   0.4676
     2.7692

     occupation numbers 
     1.0000   1.0000   1.0000   1.0000   1.0000   0.0000   0.0000   0.0000
     0.0000

          k = 0.1431 0.2479 0.0000 (  8159 PWs)   bands (ev):

   -16.0043 -11.1734  -6.5194  -5.6589  -3.8206  -1.1472  -0.9138   0.4631
     1.6657

     occupation numbers 
     1.0000   1.0000   1.0000   1.0000   1.0773   0.0000   0.0000   0.0000
     0.0000

          k = 0.1431 0.3306 0.0000 (  8138 PWs)   bands (ev):

   -15.6276 -11.5943  -6.7041  -6.1489  -4.0221  -1.2359  -0.4128   0.3658
     2.1055

     occupation numbers 
     1.0000   1.0000   1.0000   1.0000   1.0043   0.0000   0.0000   0.0000
     0.0000

          k = 0.1431 0.4132 0.0000 (  8156 PWs)   bands (ev):

   -15.1763 -12.1377  -6.8711  -6.3025  -4.3738  -1.2137  -0.1706   0.1958
     2.7026

     occupation numbers 
     1.0000   1.0000   1.0000   1.0000   1.0000   0.0000   0.0000   0.0000
     0.0000

          k = 0.1431 0.4959 0.0000 (  8168 PWs)   bands (ev):

   -14.7159 -12.6853  -7.0541  -6.1389  -4.7779  -1.0594  -0.4376   0.3478
     2.9868

     occupation numbers 
     1.0000   1.0000   1.0000   1.0000   1.0000   0.0000   0.0000   0.0000
     0.0000

          k = 0.1431 0.5785 0.0000 (  8196 PWs)   bands (ev):

   -14.4712 -12.9649  -7.1245  -5.9949  -4.9961  -0.8974  -0.6617   0.4328
     2.9624

     occupation numbers 
     1.0000   1.0000   1.0000   1.0000   1.0000   0.0000   0.0000   0.0000
     0.0000

          k = 0.2147 0.3719 0.0000 (  8141 PWs)   bands (ev):

   -15.2162 -12.0647  -6.7858  -6.5435  -4.2845  -0.6442  -0.6344   0.3598
     2.6375

     occupation numbers 
     1.0000   1.0000   1.0000   1.0000   1.0000   0.0000   0.0000   0.0000
     0.0000

          k = 0.2147 0.4545 0.0000 (  8154 PWs)   bands (ev):

   -14.7473 -12.5978  -7.2225  -6.2655  -4.6534  -0.8636  -0.2484   0.4379
     3.1641

     occupation numbers 
     1.0000   1.0000   1.0000   1.0000   1.0000   0.0000   0.0000   0.0000
     0.0000

          k = 0.2147 0.5372 0.0000 (  8194 PWs)   bands (ev):

   -14.3258 -13.0605  -7.4489  -5.9527  -5.0144  -1.0024  -0.0402   0.4861
     3.3516

     occupation numbers 
     1.0000   1.0000   1.0000   1.0000   1.0000   0.0000   0.0000   0.0000
     0.0000

          k = 0.2863 0.4959 0.0000 (  8181 PWs)   bands (ev):

   -14.2739 -13.0886  -7.5813  -5.9334  -5.0047  -1.1430   0.2562   0.6361
     3.7876

     occupation numbers 
     1.0000   1.0000   1.0000   1.0000   1.0000   0.0000   0.0000   0.0000
     0.0000

          k = 0.2863 0.5785 0.0000 (  8177 PWs)   bands (ev):

   -13.9338 -13.4342  -7.7115  -5.6602  -5.2762  -1.2636   0.5707   0.5959
     3.9656

     occupation numbers 
     1.0000   1.0000   1.0000   1.0000   1.0000   0.0000   0.0000   0.0000
     0.0000

     the Fermi energy is    -3.6483 ev

!    total energy              =     -80.28719641 Ry
     Harris-Foulkes estimate   =     -80.28719640 Ry
     estimated scf accuracy    <          2.9E-11 Ry

     The total energy is the sum of the following terms:

     one-electron contribution =    -143.67248004 Ry
     hartree contribution      =      73.40008412 Ry
     xc contribution           =     -62.67889844 Ry
     ewald contribution        =      52.66360067 Ry
     smearing contrib. (-TS)   =       0.00049729 Ry

     convergence has been achieved in   8 iterations

     Forces acting on atoms (Ry/au):


     negative rho (up, down):  1.885E-05 0.000E+00


     ----------------------------------------------------------------

     Non-local correlation energy =              0.847213142097734

     ----------------------------------------------------------------

     atom    1 type  1   force =     0.00000000    0.00000000   -0.01288723
     atom    2 type  1   force =    -0.00000000   -0.00000000    0.01288723
     The non-local contrib.  to forces
     atom    1 type  1   force =    -0.00000000   -0.00000000   -0.56796839
     atom    2 type  1   force =     0.00000000    0.00000000    0.56796839
     The ionic contribution  to forces
     atom    1 type  1   force =     0.00000000   -0.00000000   -4.88180558
     atom    2 type  1   force =    -0.00000000    0.00000000    4.88180558
     The local contribution  to forces
     atom    1 type  1   force =    -0.00000000   -0.00000000    5.49414555
     atom    2 type  1   force =     0.00000000    0.00000000   -5.49414555
     The core correction contribution to forces
     atom    1 type  1   force =    -0.00000000   -0.00000000   -0.05725682
     atom    2 type  1   force =    -0.00000000    0.00000000    0.05725683
     The Hubbard contrib.    to forces
     atom    1 type  1   force =     0.00000000    0.00000000    0.00000000
     atom    2 type  1   force =     0.00000000    0.00000000    0.00000000
     The SCF correction term to forces
     atom    1 type  1   force =    -0.00000000    0.00000000   -0.00000200
     atom    2 type  1   force =     0.00000000   -0.00000000    0.00000200

     Total force =     0.018225     Total SCF correction =     0.000003


     entering subroutine stress ...


     negative rho (up, down):  1.885E-05 0.000E+00


     ----------------------------------------------------------------

     Non-local correlation energy =              0.847213142097734

     ----------------------------------------------------------------

          total   stress  (Ry/bohr**3)                   (kbar)     P=   -7.25
  -0.00008212  -0.00000000  -0.00000000        -12.08     -0.00     -0.00
  -0.00000000  -0.00008212   0.00000000         -0.00    -12.08      0.00
  -0.00000000  -0.00000000   0.00001637         -0.00     -0.00      2.41

     kinetic stress (kbar)    418.04     -0.00      0.00
                               -0.00    418.04      0.00
                                0.00      0.00    462.09

     local   stress (kbar) -10232.76      0.00     -0.00
                                0.00 -10232.76     -0.00
                               -0.00     -0.00  12879.48

     nonloc. stress (kbar)   -893.53      0.00     -0.00
                                0.00   -893.53     -0.00
                               -0.00     -0.00   -907.52

     hartree stress (kbar)   5571.39      0.00      0.00
                                0.00   5571.39      0.00
                                0.00      0.00  -5475.56

     exc-cor stress (kbar)   4019.49     -0.00      0.00
                               -0.00   4019.49      0.00
                                0.00      0.00   4016.99

     corecor stress (kbar)  -4298.79     -0.00     -0.00
                               -0.00  -4298.79     -0.00
                               -0.00     -0.00  -4300.40

     ewald   stress (kbar)   5382.48      0.00      0.00
                                0.00   5382.48      0.00
                                0.00      0.00  -6698.80

     hubbard stress (kbar)      0.00      0.00      0.00
                                0.00      0.00      0.00
                                0.00      0.00      0.00

     london  stress (kbar)      0.00      0.00      0.00
                                0.00      0.00      0.00
                                0.00      0.00      0.00

     XDM     stress (kbar)      0.00      0.00      0.00
                                0.00      0.00      0.00
                                0.00      0.00      0.00

     dft-nl  stress (kbar)     21.61      0.00     -0.00
                                0.00     21.61      0.00
                               -0.00      0.00     26.12



     number of scf cycles    =   2
     number of bfgs steps    =   1

     enthalpy old            =     -80.2856953468 Ry
     enthalpy new            =     -80.2871964067 Ry

     CASE: enthalpy_new < enthalpy_old

     new trust radius        =       0.0259146153 bohr
     new conv_thr            =            1.3E-11 Ry

     new unit-cell volume =   1895.23214 a.u.^3 (   280.84442 Ang^3 )

CELL_PARAMETERS (angstrom)
   3.789446397  -0.000000000   0.000000000
  -1.894723198   3.281756846  -0.000000000
   0.000000000   0.000000000  22.583104154

ATOMIC_POSITIONS (angstrom)
As       1.894723198   1.093918949  -0.671817152
As       0.000000000   0.000000000   0.671817147



     Writing output data file aiida.save
     NEW-OLD atomic charge density approx. for the potential

     negative rho (up, down):  3.068E-05 0.000E+00


     ----------------------------------------------------------------

     Non-local correlation energy =              0.846806990455686

     ----------------------------------------------------------------

     extrapolated charge    9.94708, renormalised to   10.00000

     total cpu time spent up to now is       57.1 secs

     per-process dynamical memory:    42.4 Mb

     Self-consistent Calculation

     iteration #  1     ecut=    40.00 Ry     beta=0.50
     Davidson diagonalization with overlap
     ethr =  1.00E-06,  avg # of iterations =  9.2

     negative rho (up, down):  2.238E-05 0.000E+00


     ----------------------------------------------------------------

     Non-local correlation energy =              0.847316774985466

     ----------------------------------------------------------------


     total cpu time spent up to now is       59.7 secs

     total energy              =     -80.28716886 Ry
     Harris-Foulkes estimate   =     -81.01630007 Ry
     estimated scf accuracy    <       0.00106038 Ry

     iteration #  2     ecut=    40.00 Ry     beta=0.50
     Davidson diagonalization with overlap
     ethr =  1.06E-05,  avg # of iterations =  7.3

     negative rho (up, down):  2.112E-05 0.000E+00


     ----------------------------------------------------------------

     Non-local correlation energy =              0.847094129133046

     ----------------------------------------------------------------


     total cpu time spent up to now is       61.9 secs

     total energy              =     -80.28851461 Ry
     Harris-Foulkes estimate   =     -80.28879733 Ry
     estimated scf accuracy    <       0.00073455 Ry

     iteration #  3     ecut=    40.00 Ry     beta=0.50
     Davidson diagonalization with overlap
     ethr =  7.35E-06,  avg # of iterations =  1.5

     negative rho (up, down):  1.864E-05 0.000E+00


     ----------------------------------------------------------------

     Non-local correlation energy =              0.846810872396598

     ----------------------------------------------------------------


     total cpu time spent up to now is       63.4 secs

     total energy              =     -80.28844588 Ry
     Harris-Foulkes estimate   =     -80.28855949 Ry
     estimated scf accuracy    <       0.00016564 Ry

     iteration #  4     ecut=    40.00 Ry     beta=0.50
     Davidson diagonalization with overlap
     ethr =  1.66E-06,  avg # of iterations =  4.0

     negative rho (up, down):  1.834E-05 0.000E+00


     ----------------------------------------------------------------

     Non-local correlation energy =              0.846842437624271

     ----------------------------------------------------------------


     total cpu time spent up to now is       65.2 secs

     total energy              =     -80.28849499 Ry
     Harris-Foulkes estimate   =     -80.28850007 Ry
     estimated scf accuracy    <       0.00000919 Ry

     iteration #  5     ecut=    40.00 Ry     beta=0.50
     Davidson diagonalization with overlap
     ethr =  9.19E-08,  avg # of iterations =  2.1

     negative rho (up, down):  1.831E-05 0.000E+00


     ----------------------------------------------------------------

     Non-local correlation energy =              0.846854808103687

     ----------------------------------------------------------------


     total cpu time spent up to now is       66.8 secs

     total energy              =     -80.28849610 Ry
     Harris-Foulkes estimate   =     -80.28849649 Ry
     estimated scf accuracy    <       0.00000039 Ry

     iteration #  6     ecut=    40.00 Ry     beta=0.50
     Davidson diagonalization with overlap
     ethr =  3.93E-09,  avg # of iterations =  3.1

     negative rho (up, down):  1.826E-05 0.000E+00


     ----------------------------------------------------------------

     Non-local correlation energy =              0.846856863910057

     ----------------------------------------------------------------


     total cpu time spent up to now is       68.6 secs

     total energy              =     -80.28849620 Ry
     Harris-Foulkes estimate   =     -80.28849624 Ry
     estimated scf accuracy    <       0.00000001 Ry

     iteration #  7     ecut=    40.00 Ry     beta=0.50
     Davidson diagonalization with overlap
     ethr =  1.01E-10,  avg # of iterations =  3.1

     negative rho (up, down):  1.827E-05 0.000E+00


     ----------------------------------------------------------------

     Non-local correlation energy =              0.846857929657597

     ----------------------------------------------------------------


     total cpu time spent up to now is       70.3 secs

     total energy              =     -80.28849621 Ry
     Harris-Foulkes estimate   =     -80.28849620 Ry
     estimated scf accuracy    <          1.3E-09 Ry

     iteration #  8     ecut=    40.00 Ry     beta=0.50
     Davidson diagonalization with overlap
     ethr =  1.27E-11,  avg # of iterations =  3.1

     negative rho (up, down):  1.826E-05 0.000E+00


     ----------------------------------------------------------------

     Non-local correlation energy =              0.846858210255945

     ----------------------------------------------------------------


     total cpu time spent up to now is       71.9 secs

     total energy              =     -80.28849619 Ry
     Harris-Foulkes estimate   =     -80.28849621 Ry
     estimated scf accuracy    <          1.2E-10 Ry

     iteration #  9     ecut=    40.00 Ry     beta=0.50
     Davidson diagonalization with overlap
     ethr =  1.20E-12,  avg # of iterations =  3.8

     negative rho (up, down):  1.826E-05 0.000E+00


     ----------------------------------------------------------------

     Non-local correlation energy =              0.846858251597801

     ----------------------------------------------------------------


     total cpu time spent up to now is       73.7 secs

     total energy              =     -80.28849618 Ry
     Harris-Foulkes estimate   =     -80.28849619 Ry
     estimated scf accuracy    <          1.4E-11 Ry

     iteration # 10     ecut=    40.00 Ry     beta=0.50
     Davidson diagonalization with overlap
     ethr =  1.43E-13,  avg # of iterations =  3.1

     negative rho (up, down):  1.827E-05 0.000E+00


     ----------------------------------------------------------------

     Non-local correlation energy =              0.846858363295904

     ----------------------------------------------------------------


     total cpu time spent up to now is       75.4 secs

     End of self-consistent calculation

          k = 0.0000 0.0000 0.0000 (  8215 PWs)   bands (ev):

   -16.6221 -10.7015  -4.1481  -4.1481  -3.8326  -2.6538  -0.6610  -0.6610
     0.8614

     occupation numbers 
     1.0000   1.0000   1.0002   1.0002   1.0417   0.0000   0.0000   0.0000
     0.0000

          k = 0.0000 0.0829-0.0000 (  8187 PWs)   bands (ev):

   -16.5637 -10.7213  -4.7489  -4.2714  -3.8165  -2.1108  -0.7724  -0.5218
     0.9369

     occupation numbers 
     1.0000   1.0000   1.0000   1.0000   1.0053   0.0000   0.0000   0.0000
     0.0000

          k = 0.0000 0.1658-0.0000 (  8169 PWs)   bands (ev):

   -16.3902 -10.8038  -5.6520  -4.5703  -3.7918  -1.7719  -0.5793  -0.1980
     1.1534

     occupation numbers 
     1.0000   1.0000   1.0000   1.0000   0.9242   0.0000   0.0000   0.0000
     0.0000

          k = 0.0000 0.2487-0.0000 (  8137 PWs)   bands (ev):

   -16.1065 -11.0121  -6.3788  -4.9235  -3.8396  -2.0207  -0.0199   0.1370
     1.4589

     occupation numbers 
     1.0000   1.0000   1.0000   1.0000   1.0537   0.0000   0.0000   0.0000
     0.0000

          k = 0.0000 0.3316-0.0000 (  8144 PWs)   bands (ev):

   -15.7240 -11.4047  -6.7940  -5.2487  -4.0675  -2.1642   0.1293   0.3692
     1.8755

     occupation numbers 
     1.0000   1.0000   1.0000   1.0000   1.0037   0.0000   0.0000   0.0000
     0.0000

          k = 0.0000 0.4144-0.0000 (  8152 PWs)   bands (ev):

   -15.2688 -11.9522  -6.9010  -5.5019  -4.4467  -2.1138  -0.0613   0.4839
     2.4535

     occupation numbers 
     1.0000   1.0000   1.0000   1.0000   1.0000   0.0000   0.0000   0.0000
     0.0000

          k = 0.0000 0.4973-0.0000 (  8180 PWs)   bands (ev):

   -14.8139 -12.5083  -6.8264  -5.6609  -4.8122  -2.0050  -0.2669   0.5240
     2.6927

     occupation numbers 
     1.0000   1.0000   1.0000   1.0000   1.0000   0.0000   0.0000   0.0000
     0.0000

          k =-0.0000-0.5802 0.0000 (  8172 PWs)   bands (ev):

   -14.5824 -12.7817  -6.7623  -5.7149  -4.9716  -1.9551  -0.3443   0.5322
     2.6902

     occupation numbers 
     1.0000   1.0000   1.0000   1.0000   1.0000   0.0000   0.0000   0.0000
     0.0000

          k = 0.0718 0.1243-0.0000 (  8191 PWs)   bands (ev):

   -16.4477 -10.7723  -5.3927  -4.5385  -3.7932  -1.5800  -0.9717  -0.1902
     1.0862

     occupation numbers 
     1.0000   1.0000   1.0000   1.0000   0.9297   0.0000   0.0000   0.0000
     0.0000

          k = 0.0718 0.2072-0.0000 (  8184 PWs)   bands (ev):

   -16.2189 -10.9172  -6.0974  -4.9598  -3.7909  -1.5441  -0.6955   0.2363
     1.3573

     occupation numbers 
     1.0000   1.0000   1.0000   1.0000   0.9207   0.0000   0.0000   0.0000
     0.0000

          k = 0.0718 0.2901-0.0000 (  8161 PWs)   bands (ev):

   -15.8847 -11.2202  -6.6084  -5.3641  -3.9043  -1.8015  -0.1671   0.3926
     1.7070

     occupation numbers 
     1.0000   1.0000   1.0000   1.0000   1.0776   0.0000   0.0000   0.0000
     0.0000

          k = 0.0718 0.3730-0.0000 (  8149 PWs)   bands (ev):

   -15.4617 -11.6998  -6.8438  -5.6705  -4.2002  -1.8576   0.0999   0.2437
     2.2168

     occupation numbers 
     1.0000   1.0000   1.0000   1.0000   1.0000   0.0000   0.0000   0.0000
     0.0000

          k = 0.0718 0.4559-0.0000 (  8172 PWs)   bands (ev):

   -14.9913 -12.2714  -6.8697  -5.8316  -4.6008  -1.7535  -0.1704   0.3628
     2.7348

     occupation numbers 
     1.0000   1.0000   1.0000   1.0000   1.0000   0.0000   0.0000   0.0000
     0.0000

          k = 0.0718 0.5388-0.0000 (  8168 PWs)   bands (ev):

   -14.6025 -12.7332  -6.8322  -5.8448  -4.9241  -1.6345  -0.3947   0.4482
     2.7670

     occupation numbers 
     1.0000   1.0000   1.0000   1.0000   1.0000   0.0000   0.0000   0.0000
     0.0000

          k = 0.1436 0.2487-0.0000 (  8159 PWs)   bands (ev):

   -15.9388 -11.1578  -6.4571  -5.5576  -3.8446  -1.1292  -0.8256   0.4898
     1.6800

     occupation numbers 
     1.0000   1.0000   1.0000   1.0000   1.0609   0.0000   0.0000   0.0000
     0.0000

          k = 0.1436 0.3316-0.0000 (  8138 PWs)   bands (ev):

   -15.5604 -11.5576  -6.6638  -6.0566  -4.0340  -1.2111  -0.3820   0.3922
     2.1178

     occupation numbers 
     1.0000   1.0000   1.0000   1.0000   1.0093   0.0000   0.0000   0.0000
     0.0000

          k = 0.1436 0.4144-0.0000 (  8156 PWs)   bands (ev):

   -15.1072 -12.0850  -6.8268  -6.2362  -4.3781  -1.1883  -0.1846   0.2240
     2.7144

     occupation numbers 
     1.0000   1.0000   1.0000   1.0000   1.0000   0.0000   0.0000   0.0000
     0.0000

          k = 0.1436 0.4973-0.0000 (  8168 PWs)   bands (ev):

   -14.6451 -12.6243  -6.9989  -6.0936  -4.7818  -1.0249  -0.4423   0.3303
     3.0001

     occupation numbers 
     1.0000   1.0000   1.0000   1.0000   1.0000   0.0000   0.0000   0.0000
     0.0000

          k = 0.1436 0.5802-0.0000 (  8196 PWs)   bands (ev):

   -14.3994 -12.9018  -7.0668  -5.9522  -5.0032  -0.8205  -0.7028   0.3994
     2.9709

     occupation numbers 
     1.0000   1.0000   1.0000   1.0000   1.0000   0.0000   0.0000   0.0000
     0.0000

          k = 0.2154 0.3730-0.0000 (  8141 PWs)   bands (ev):

   -15.1474 -12.0132  -6.6997  -6.5200  -4.2889  -0.6552  -0.6359   0.4167
     2.6883

     occupation numbers 
     1.0000   1.0000   1.0000   1.0000   1.0000   0.0000   0.0000   0.0000
     0.0000

          k = 0.2154 0.4559-0.0000 (  8154 PWs)   bands (ev):

   -14.6769 -12.5366  -7.1443  -6.2482  -4.6539  -0.8921  -0.2555   0.4788
     3.2177

     occupation numbers 
     1.0000   1.0000   1.0000   1.0000   1.0000   0.0000   0.0000   0.0000
     0.0000

          k = 0.2154 0.5388-0.0000 (  8194 PWs)   bands (ev):

   -14.2544 -12.9949  -7.3744  -5.9361  -5.0156  -1.0418  -0.0012   0.4660
     3.3886

     occupation numbers 
     1.0000   1.0000   1.0000   1.0000   1.0000   0.0000   0.0000   0.0000
     0.0000

          k = 0.2871 0.4973-0.0000 (  8181 PWs)   bands (ev):

   -14.2029 -13.0218  -7.5033  -5.9244  -5.0024  -1.1836   0.2321   0.6615
     3.8754

     occupation numbers 
     1.0000   1.0000   1.0000   1.0000   1.0000   0.0000   0.0000   0.0000
     0.0000

          k = 0.2871 0.5802-0.0000 (  8177 PWs)   bands (ev):

   -13.8628 -13.3653  -7.6346  -5.6523  -5.2735  -1.3071   0.5699   0.5792
     4.0456

     occupation numbers 
     1.0000   1.0000   1.0000   1.0000   1.0000   0.0000   0.0000   0.0000
     0.0000

     the Fermi energy is    -3.6892 ev

!    total energy              =     -80.28849616 Ry
     Harris-Foulkes estimate   =     -80.28849618 Ry
     estimated scf accuracy    <          8.3E-12 Ry

     The total energy is the sum of the following terms:

     one-electron contribution =    -144.24231188 Ry
     hartree contribution      =      73.69872541 Ry
     xc contribution           =     -62.67370199 Ry
     ewald contribution        =      52.92827361 Ry
     smearing contrib. (-TS)   =       0.00051869 Ry

     convergence has been achieved in  10 iterations

     Forces acting on atoms (Ry/au):


     negative rho (up, down):  1.827E-05 0.000E+00


     ----------------------------------------------------------------

     Non-local correlation energy =              0.846858363295904

     ----------------------------------------------------------------

     atom    1 type  1   force =     0.00000000   -0.00000000   -0.00383334
     atom    2 type  1   force =    -0.00000000    0.00000000    0.00383334
     The non-local contrib.  to forces
     atom    1 type  1   force =    -0.00000000   -0.00000000   -0.56192476
     atom    2 type  1   force =    -0.00000000    0.00000000    0.56192476
     The ionic contribution  to forces
     atom    1 type  1   force =     0.00000000   -0.00000000   -4.95422000
     atom    2 type  1   force =    -0.00000000    0.00000000    4.95422000
     The local contribution  to forces
     atom    1 type  1   force =     0.00000000   -0.00000000    5.56876757
     atom    2 type  1   force =     0.00000000    0.00000000   -5.56876757
     The core correction contribution to forces
     atom    1 type  1   force =    -0.00000000   -0.00000000   -0.05645399
     atom    2 type  1   force =    -0.00000000   -0.00000000    0.05645398
     The Hubbard contrib.    to forces
     atom    1 type  1   force =     0.00000000    0.00000000    0.00000000
     atom    2 type  1   force =     0.00000000    0.00000000    0.00000000
     The SCF correction term to forces
     atom    1 type  1   force =     0.00000000    0.00000000   -0.00000217
     atom    2 type  1   force =     0.00000000    0.00000000    0.00000217

     Total force =     0.005421     Total SCF correction =     0.000003


     entering subroutine stress ...


     negative rho (up, down):  1.827E-05 0.000E+00


     ----------------------------------------------------------------

     Non-local correlation energy =              0.846858363295904

     ----------------------------------------------------------------

          total   stress  (Ry/bohr**3)                   (kbar)     P=   -7.89
  -0.00008279  -0.00000000  -0.00000000        -12.18     -0.00     -0.00
  -0.00000000  -0.00008279   0.00000000         -0.00    -12.18      0.00
  -0.00000000  -0.00000000   0.00000465         -0.00     -0.00      0.68

     kinetic stress (kbar)    420.96      0.00     -0.00
                                0.00    420.96      0.00
                                0.00      0.00    461.60

     local   stress (kbar) -10330.91      0.00     -0.00
                                0.00 -10330.91     -0.00
                               -0.00     -0.00  12989.62

     nonloc. stress (kbar)   -897.90     -0.00     -0.00
                               -0.00   -897.90     -0.00
                                0.00      0.00   -911.51

     hartree stress (kbar)   5624.74      0.00      0.00
                                0.00   5624.74      0.00
                                0.00      0.00  -5529.11

     exc-cor stress (kbar)   4040.80     -0.00      0.00
                               -0.00   4040.80      0.00
                                0.00      0.00   4038.39

     corecor stress (kbar)  -4321.45     -0.00     -0.00
                               -0.00  -4321.45      0.00
                               -0.00      0.00  -4323.05

     ewald   stress (kbar)   5429.85     -0.00     -0.00
                               -0.00   5429.85      0.00
                               -0.00      0.00  -6751.48

     hubbard stress (kbar)      0.00      0.00      0.00
                                0.00      0.00      0.00
                                0.00      0.00      0.00

     london  stress (kbar)      0.00      0.00      0.00
                                0.00      0.00      0.00
                                0.00      0.00      0.00

     XDM     stress (kbar)      0.00      0.00      0.00
                                0.00      0.00      0.00
                                0.00      0.00      0.00

     dft-nl  stress (kbar)     21.74      0.00     -0.00
                                0.00     21.74     -0.00
                               -0.00     -0.00     26.21



     number of scf cycles    =   3
     number of bfgs steps    =   2

     enthalpy old            =     -80.2871964067 Ry
     enthalpy new            =     -80.2884961643 Ry

     CASE: enthalpy_new < enthalpy_old

     new trust radius        =       0.0388849048 bohr
     new conv_thr            =            3.8E-12 Ry

     new unit-cell volume =   1879.58505 a.u.^3 (   278.52577 Ang^3 )

CELL_PARAMETERS (angstrom)
   3.772522686  -0.000000000   0.000000000
  -1.886261343   3.267100482  -0.000000000
   0.000000000  -0.000000000  22.598053082

ATOMIC_POSITIONS (angstrom)
As       1.886261343   1.089033494  -0.683558332
As      -0.000000000  -0.000000000   0.683558327



     Writing output data file aiida.save
     NEW-OLD atomic charge density approx. for the potential

     negative rho (up, down):  3.059E-05 0.000E+00


     ----------------------------------------------------------------

     Non-local correlation energy =              0.846078216062135

     ----------------------------------------------------------------

     extrapolated charge    9.91676, renormalised to   10.00000

     total cpu time spent up to now is       87.2 secs

     per-process dynamical memory:    42.4 Mb

     Self-consistent Calculation

     iteration #  1     ecut=    40.00 Ry     beta=0.50
     Davidson diagonalization with overlap
     ethr =  1.00E-06,  avg # of iterations = 10.1

     negative rho (up, down):  2.196E-05 0.000E+00


     ----------------------------------------------------------------

     Non-local correlation energy =              0.846918228471270

     ----------------------------------------------------------------


     total cpu time spent up to now is       90.0 secs

     total energy              =     -80.28676906 Ry
     Harris-Foulkes estimate   =     -81.44200605 Ry
     estimated scf accuracy    <       0.00231615 Ry

     iteration #  2     ecut=    40.00 Ry     beta=0.50
     Davidson diagonalization with overlap
     ethr =  2.32E-05,  avg # of iterations =  7.8

     negative rho (up, down):  2.056E-05 0.000E+00


     ----------------------------------------------------------------

     Non-local correlation energy =              0.846593499420136

     ----------------------------------------------------------------


     total cpu time spent up to now is       92.7 secs

     total energy              =     -80.28991892 Ry
     Harris-Foulkes estimate   =     -80.29057957 Ry
     estimated scf accuracy    <       0.00173532 Ry

     iteration #  3     ecut=    40.00 Ry     beta=0.50
     Davidson diagonalization with overlap
     ethr =  1.74E-05,  avg # of iterations =  1.4

     negative rho (up, down):  1.751E-05 0.000E+00


     ----------------------------------------------------------------

     Non-local correlation energy =              0.846272842724527

     ----------------------------------------------------------------


     total cpu time spent up to now is       94.2 secs

     total energy              =     -80.28977952 Ry
     Harris-Foulkes estimate   =     -80.29002075 Ry
     estimated scf accuracy    <       0.00041028 Ry

     iteration #  4     ecut=    40.00 Ry     beta=0.50
     Davidson diagonalization with overlap
     ethr =  4.10E-06,  avg # of iterations =  4.3

     negative rho (up, down):  1.743E-05 0.000E+00


     ----------------------------------------------------------------

     Non-local correlation energy =              0.846235429518670

     ----------------------------------------------------------------


     total cpu time spent up to now is       96.1 secs

     total energy              =     -80.28985860 Ry
     Harris-Foulkes estimate   =     -80.28985983 Ry
     estimated scf accuracy    <       0.00000204 Ry

     iteration #  5     ecut=    40.00 Ry     beta=0.50
     Davidson diagonalization with overlap
     ethr =  2.04E-08,  avg # of iterations =  3.1

     negative rho (up, down):  1.749E-05 0.000E+00


     ----------------------------------------------------------------

     Non-local correlation energy =              0.846245947435742

     ----------------------------------------------------------------


     total cpu time spent up to now is       97.8 secs

     total energy              =     -80.28985947 Ry
     Harris-Foulkes estimate   =     -80.28985988 Ry
     estimated scf accuracy    <       0.00000033 Ry

     iteration #  6     ecut=    40.00 Ry     beta=0.50
     Davidson diagonalization with overlap
     ethr =  3.28E-09,  avg # of iterations =  2.0

     negative rho (up, down):  1.750E-05 0.000E+00


     ----------------------------------------------------------------

     Non-local correlation energy =              0.846245191374211

     ----------------------------------------------------------------


     total cpu time spent up to now is       99.4 secs

     total energy              =     -80.28985954 Ry
     Harris-Foulkes estimate   =     -80.28985959 Ry
     estimated scf accuracy    <       0.00000001 Ry

     iteration #  7     ecut=    40.00 Ry     beta=0.50
     Davidson diagonalization with overlap
     ethr =  1.09E-10,  avg # of iterations =  4.1

     negative rho (up, down):  1.752E-05 0.000E+00


     ----------------------------------------------------------------

     Non-local correlation energy =              0.846247870017066

     ----------------------------------------------------------------


     total cpu time spent up to now is      101.3 secs

     total energy              =     -80.28985950 Ry
     Harris-Foulkes estimate   =     -80.28985956 Ry
     estimated scf accuracy    <       0.00000002 Ry

     iteration #  8     ecut=    40.00 Ry     beta=0.50
     Davidson diagonalization with overlap
     ethr =  1.09E-10,  avg # of iterations =  2.0

     negative rho (up, down):  1.752E-05 0.000E+00


     ----------------------------------------------------------------

     Non-local correlation energy =              0.846248656989206

     ----------------------------------------------------------------


     total cpu time spent up to now is      102.9 secs

     total energy              =     -80.28985951 Ry
     Harris-Foulkes estimate   =     -80.28985951 Ry
     estimated scf accuracy    <          8.4E-10 Ry

     iteration #  9     ecut=    40.00 Ry     beta=0.50
     Davidson diagonalization with overlap
     ethr =  8.40E-12,  avg # of iterations =  2.9

     negative rho (up, down):  1.752E-05 0.000E+00


     ----------------------------------------------------------------

     Non-local correlation energy =              0.846248553556198

     ----------------------------------------------------------------


     total cpu time spent up to now is      104.6 secs

     total energy              =     -80.28985952 Ry
     Harris-Foulkes estimate   =     -80.28985951 Ry
     estimated scf accuracy    <          7.5E-11 Ry

     iteration # 10     ecut=    40.00 Ry     beta=0.50
     Davidson diagonalization with overlap
     ethr =  7.54E-13,  avg # of iterations =  3.6

     negative rho (up, down):  1.752E-05 0.000E+00


     ----------------------------------------------------------------

     Non-local correlation energy =              0.846248651362036

     ----------------------------------------------------------------


     total cpu time spent up to now is      106.3 secs

     total energy              =     -80.28985950 Ry
     Harris-Foulkes estimate   =     -80.28985952 Ry
     estimated scf accuracy    <          4.4E-12 Ry

     iteration # 11     ecut=    40.00 Ry     beta=0.50
     Davidson diagonalization with overlap
     ethr =  1.00E-13,  avg # of iterations =  3.3

     negative rho (up, down):  1.752E-05 0.000E+00


     ----------------------------------------------------------------

     Non-local correlation energy =              0.846248649545224

     ----------------------------------------------------------------


     total cpu time spent up to now is      108.1 secs

     End of self-consistent calculation

          k = 0.0000 0.0000 0.0000 (  8215 PWs)   bands (ev):

   -16.5732 -10.7291  -4.0098  -4.0098  -3.8842  -2.4888  -0.5802  -0.5802
     0.8763

     occupation numbers 
     1.0000   1.0000   1.0354   1.0354   1.0615   0.0000   0.0000   0.0000
     0.0000

          k = 0.0000 0.0833 0.0000 (  8187 PWs)   bands (ev):

   -16.5143 -10.7446  -4.6199  -4.1354  -3.8658  -1.9493  -0.6966  -0.4433
     0.9540

     occupation numbers 
     1.0000   1.0000   1.0000   1.0015   1.0299   0.0000   0.0000   0.0000
     0.0000

          k = 0.0000 0.1665 0.0000 (  8169 PWs)   bands (ev):

   -16.3391 -10.8138  -5.5466  -4.4393  -3.8334  -1.6616  -0.4822  -0.1287
     1.1756

     occupation numbers 
     1.0000   1.0000   1.0000   1.0000   0.9337   0.0000   0.0000   0.0000
     0.0000

          k = 0.0000 0.2498 0.0000 (  8137 PWs)   bands (ev):

   -16.0526 -10.9996  -6.3060  -4.7976  -3.8662  -1.9515   0.0638   0.1895
     1.4803

     occupation numbers 
     1.0000   1.0000   1.0000   1.0000   1.0308   0.0000   0.0000   0.0000
     0.0000

          k = 0.0000 0.3330 0.0000 (  8144 PWs)   bands (ev):

   -15.6664 -11.3668  -6.7547  -5.1270  -4.0777  -2.1142   0.1741   0.4022
     1.8939

     occupation numbers 
     1.0000   1.0000   1.0000   1.0000   1.0083   0.0000   0.0000   0.0000
     0.0000

          k = 0.0000 0.4163 0.0000 (  8152 PWs)   bands (ev):

   -15.2067 -11.8967  -6.8850  -5.3833  -4.4515  -2.0589  -0.0563   0.5014
     2.4759

     occupation numbers 
     1.0000   1.0000   1.0000   1.0000   1.0000   0.0000   0.0000   0.0000
     0.0000

          k = 0.0000 0.4996 0.0000 (  8180 PWs)   bands (ev):

   -14.7471 -12.4459  -6.8204  -5.5440  -4.8205  -1.9279  -0.2986   0.5324
     2.7013

     occupation numbers 
     1.0000   1.0000   1.0000   1.0000   1.0000   0.0000   0.0000   0.0000
     0.0000

          k =-0.0000-0.5828-0.0000 (  8172 PWs)   bands (ev):

[...]
     Davidson diagonalization with overlap
     ethr =  2.13E-04,  avg # of iterations =  1.4

     negative rho (up, down):  5.054E-05 0.000E+00


     ----------------------------------------------------------------

     Non-local correlation energy =              0.837505239832133

     ----------------------------------------------------------------


     total cpu time spent up to now is      415.6 secs

     total energy              =     -80.29790728 Ry
     Harris-Foulkes estimate   =     -80.29835369 Ry
     estimated scf accuracy    <       0.00364432 Ry

     iteration #  3     ecut=    40.00 Ry     beta=0.50
     Davidson diagonalization with overlap
     ethr =  3.64E-05,  avg # of iterations =  3.7

     negative rho (up, down):  3.729E-05 0.000E+00


     ----------------------------------------------------------------

     Non-local correlation energy =              0.837701453955778

     ----------------------------------------------------------------


     total cpu time spent up to now is      417.1 secs

     total energy              =     -80.29800270 Ry
     Harris-Foulkes estimate   =     -80.29799722 Ry
     estimated scf accuracy    <       0.00011022 Ry

     iteration #  4     ecut=    40.00 Ry     beta=0.50
     Davidson diagonalization with overlap
     ethr =  1.10E-06,  avg # of iterations =  5.7

     negative rho (up, down):  2.364E-05 0.000E+00


     ----------------------------------------------------------------

     Non-local correlation energy =              0.837662481443916

     ----------------------------------------------------------------


     total cpu time spent up to now is      418.8 secs

     total energy              =     -80.29801476 Ry
     Harris-Foulkes estimate   =     -80.29801535 Ry
     estimated scf accuracy    <       0.00000530 Ry

     iteration #  5     ecut=    40.00 Ry     beta=0.50
     Davidson diagonalization with overlap
     ethr =  5.30E-08,  avg # of iterations =  4.0

     negative rho (up, down):  1.759E-05 0.000E+00


     ----------------------------------------------------------------

     Non-local correlation energy =              0.837675703607265

     ----------------------------------------------------------------


     total cpu time spent up to now is      420.4 secs

     total energy              =     -80.29801914 Ry
     Harris-Foulkes estimate   =     -80.29801915 Ry
     estimated scf accuracy    <       0.00000012 Ry

     iteration #  6     ecut=    40.00 Ry     beta=0.50
     Davidson diagonalization with overlap
     ethr =  1.17E-09,  avg # of iterations =  4.8

     negative rho (up, down):  1.640E-05 0.000E+00


     ----------------------------------------------------------------

     Non-local correlation energy =              0.837672709043722

     ----------------------------------------------------------------


     total cpu time spent up to now is      422.2 secs

     total energy              =     -80.29801932 Ry
     Harris-Foulkes estimate   =     -80.29801929 Ry
     estimated scf accuracy    <       0.00000003 Ry

     iteration #  7     ecut=    40.00 Ry     beta=0.50
     Davidson diagonalization with overlap
     ethr =  2.88E-10,  avg # of iterations =  2.0

     negative rho (up, down):  1.633E-05 0.000E+00


     ----------------------------------------------------------------

     Non-local correlation energy =              0.837673799845248

     ----------------------------------------------------------------


     total cpu time spent up to now is      423.7 secs

     total energy              =     -80.29801928 Ry
     Harris-Foulkes estimate   =     -80.29801932 Ry
     estimated scf accuracy    <          2.8E-09 Ry

     iteration #  8     ecut=    40.00 Ry     beta=0.50
     Davidson diagonalization with overlap
     ethr =  2.78E-11,  avg # of iterations =  2.2

     negative rho (up, down):  1.645E-05 0.000E+00


     ----------------------------------------------------------------

     Non-local correlation energy =              0.837673623112090

     ----------------------------------------------------------------


     total cpu time spent up to now is      425.1 secs

     total energy              =     -80.29801922 Ry
     Harris-Foulkes estimate   =     -80.29801928 Ry
     estimated scf accuracy    <          3.9E-11 Ry

     iteration #  9     ecut=    40.00 Ry     beta=0.50
     Davidson diagonalization with overlap
     ethr =  3.88E-13,  avg # of iterations =  4.2

     negative rho (up, down):  1.655E-05 0.000E+00


     ----------------------------------------------------------------

     Non-local correlation energy =              0.837673634540906

     ----------------------------------------------------------------


     total cpu time spent up to now is      426.8 secs

     total energy              =     -80.29801918 Ry
     Harris-Foulkes estimate   =     -80.29801922 Ry
     estimated scf accuracy    <          2.4E-12 Ry

     iteration # 10     ecut=    40.00 Ry     beta=0.50
     Davidson diagonalization with overlap
     ethr =  1.00E-13,  avg # of iterations =  2.4

     negative rho (up, down):  1.667E-05 0.000E+00


     ----------------------------------------------------------------

     Non-local correlation energy =              0.837673662604551

     ----------------------------------------------------------------


     total cpu time spent up to now is      428.2 secs

     End of self-consistent calculation

          k = 0.0000 0.0000 0.0000 (  7273 PWs)   bands (ev):

   -16.9756 -10.7061  -4.0702  -3.3543  -3.3543  -1.4015   0.1213   0.1213
     1.0204

     occupation numbers 
     1.0000   1.0000   1.0000   0.7936   0.7936   0.0000   0.0000   0.0000
     0.0000

          k = 0.0000 0.0876-0.0000 (  7223 PWs)   bands (ev):

   -16.9073 -10.6945  -4.0680  -4.0344  -3.5122  -0.8753  -0.0066   0.2784
     1.1298

     occupation numbers 
     1.0000   1.0000   1.0000   1.0000   1.0688   0.0000   0.0000   0.0000
     0.0000

          k = 0.0000 0.1752-0.0000 (  7228 PWs)   bands (ev):

   -16.7036 -10.6841  -5.2267  -3.9464  -3.8854  -0.9553   0.4081   0.6170
     1.4210

     occupation numbers 
     1.0000   1.0000   1.0000   1.0000   1.0000   0.0000   0.0000   0.0000
     0.0000

          k = 0.0000 0.2628-0.0000 (  7234 PWs)   bands (ev):

   -16.3697 -10.7570  -6.2452  -4.3155  -3.8793  -1.4829   0.8572   0.9161
     1.7079

     occupation numbers 
     1.0000   1.0000   1.0000   1.0000   1.0000   0.0000   0.0000   0.0000
     0.0000

          k = 0.0000 0.3504-0.0000 (  7272 PWs)   bands (ev):

   -15.9170 -11.0458  -6.8904  -4.7049  -3.9899  -1.8026   0.7258   1.0687
     2.1140

     occupation numbers 
     1.0000   1.0000   1.0000   1.0000   1.0000   0.0000   0.0000   0.0000
     0.0000

          k = 0.0000 0.4380-0.0000 (  7272 PWs)   bands (ev):

   -15.3729 -11.5998  -7.0797  -5.0053  -4.3639  -1.7668   0.2558   1.1017
     2.7750

     occupation numbers 
     1.0000   1.0000   1.0000   1.0000   1.0000   0.0000   0.0000   0.0000
     0.0000

          k = 0.0000 0.5256-0.0000 (  7286 PWs)   bands (ev):

   -14.8175 -12.2442  -6.9697  -5.1928  -4.8144  -1.5380  -0.1661   1.0871
     2.9047

     occupation numbers 
     1.0000   1.0000   1.0000   1.0000   1.0000   0.0000   0.0000   0.0000
     0.0000

          k =-0.0000-0.6132 0.0000 (  7258 PWs)   bands (ev):

   -14.5245 -12.5818  -6.8646  -5.2563  -5.0313  -1.3956  -0.3522   1.0766
     2.8089

     occupation numbers 
     1.0000   1.0000   1.0000   1.0000   1.0000   0.0000   0.0000   0.0000
     0.0000

          k = 0.0759 0.1314-0.0000 (  7227 PWs)   bands (ev):

   -16.7712 -10.6831  -4.8806  -3.9754  -3.8544  -0.4083  -0.2970   0.6618
     1.3715

     occupation numbers 
     1.0000   1.0000   1.0000   1.0000   1.0000   0.0000   0.0000   0.0000
     0.0000

          k = 0.0759 0.2190-0.0000 (  7241 PWs)   bands (ev):

   -16.5022 -10.7115  -5.8413  -4.3934  -3.8798  -0.8597   0.2109   1.0423
     1.6768

     occupation numbers 
     1.0000   1.0000   1.0000   1.0000   1.0000   0.0000   0.0000   0.0000
     0.0000

          k = 0.0759 0.3066-0.0000 (  7246 PWs)   bands (ev):

   -16.1078 -10.8891  -6.6095  -4.8901  -3.8705  -1.3200   0.6184   1.0916
     1.9568

     occupation numbers 
     1.0000   1.0000   1.0000   1.0000   1.0000   0.0000   0.0000   0.0000
     0.0000

          k = 0.0759 0.3942-0.0000 (  7262 PWs)   bands (ev):

   -15.6052 -11.3217  -6.9916  -5.2709  -4.0870  -1.4876   0.6443   0.8080
     2.4930

     occupation numbers 
     1.0000   1.0000   1.0000   1.0000   1.0000   0.0000   0.0000   0.0000
     0.0000

          k = 0.0759 0.4818-0.0000 (  7264 PWs)   bands (ev):

   -15.0384 -11.9504  -7.0173  -5.4899  -4.5216  -1.3348   0.1119   0.8731
     3.0799

     occupation numbers 
     1.0000   1.0000   1.0000   1.0000   1.0000   0.0000   0.0000   0.0000
     0.0000

          k = 0.0759 0.5694-0.0000 (  7262 PWs)   bands (ev):

   -14.5563 -12.5049  -6.9142  -5.5175  -4.9443  -1.0452  -0.3246   0.9119
     2.9366

     occupation numbers 
     1.0000   1.0000   1.0000   1.0000   1.0000   0.0000   0.0000   0.0000
     0.0000

          k = 0.1517 0.2628-0.0000 (  7243 PWs)   bands (ev):

   -16.1720 -10.8399  -6.3976  -5.1513  -3.8391  -0.6718   0.0733   1.2647
     2.0269

     occupation numbers 
     1.0000   1.0000   1.0000   1.0000   1.0000   0.0000   0.0000   0.0000
     0.0000

          k = 0.1517 0.3504-0.0000 (  7248 PWs)   bands (ev):

   -15.7239 -11.1667  -6.7585  -5.7744  -3.9342  -0.8313   0.1908   1.1899
     2.4158

     occupation numbers 
     1.0000   1.0000   1.0000   1.0000   1.0000   0.0000   0.0000   0.0000
     0.0000

          k = 0.1517 0.4380-0.0000 (  7242 PWs)   bands (ev):

   -15.1829 -11.7106  -6.9217  -6.0857  -4.2548  -0.8788   0.1585   0.9446
     3.0510

     occupation numbers 
     1.0000   1.0000   1.0000   1.0000   1.0000   0.0000   0.0000   0.0000
     0.0000

          k = 0.1517 0.5256-0.0000 (  7275 PWs)   bands (ev):

   -14.6218 -12.3324  -7.0232  -6.0136  -4.7234  -0.7606   0.0261   0.7666
     3.3338

     occupation numbers 
     1.0000   1.0000   1.0000   1.0000   1.0000   0.0000   0.0000   0.0000
     0.0000

          k = 0.1517 0.6132-0.0000 (  7278 PWs)   bands (ev):

   -14.3141 -12.6717  -7.0699  -5.8417  -5.0196  -0.6685  -0.0583   0.7142
     3.2200

     occupation numbers 
     1.0000   1.0000   1.0000   1.0000   1.0000   0.0000   0.0000   0.0000
     0.0000

          k = 0.2276 0.3942-0.0000 (  7233 PWs)   bands (ev):

   -15.2329 -11.6164  -6.6582  -6.5584  -4.1522  -0.4057  -0.3621   1.3970
     3.0226

     occupation numbers 
     1.0000   1.0000   1.0000   1.0000   1.0000   0.0000   0.0000   0.0000
     0.0000

          k = 0.2276 0.4818-0.0000 (  7259 PWs)   bands (ev):

   -14.6695 -12.1921  -7.1173  -6.3390  -4.5381  -0.8179   0.0306   1.3343
     3.7380

     occupation numbers 
     1.0000   1.0000   1.0000   1.0000   1.0000   0.0000   0.0000   0.0000
     0.0000

          k = 0.2276 0.5694-0.0000 (  7261 PWs)   bands (ev):

   -14.1552 -12.7296  -7.3955  -5.9518  -4.9708  -1.0553   0.5163   0.9938
     3.8988

     occupation numbers 
     1.0000   1.0000   1.0000   1.0000   1.0000   0.0000   0.0000   0.0000
     0.0000

          k = 0.3034 0.5256-0.0000 (  7275 PWs)   bands (ev):

   -14.1039 -12.7332  -7.5504  -5.9775  -4.9186  -1.2335   0.5207   1.3851
     4.6109

     occupation numbers 
     1.0000   1.0000   1.0000   1.0000   1.0000   0.0000   0.0000   0.0000
     0.0000

          k = 0.3034 0.6132-0.0000 (  7275 PWs)   bands (ev):

   -13.6968 -13.1311  -7.7153  -5.6482  -5.2345  -1.4015   0.9254   1.1551
     4.6400

     occupation numbers 
     1.0000   1.0000   1.0000   1.0000   1.0000   0.0000   0.0000   0.0000
     0.0000

     the Fermi energy is    -3.2810 ev

!    total energy              =     -80.29801918 Ry
     Harris-Foulkes estimate   =     -80.29801918 Ry
     estimated scf accuracy    <          1.1E-13 Ry

     The total energy is the sum of the following terms:

     one-electron contribution =    -159.53532674 Ry
     hartree contribution      =      81.44680985 Ry
     xc contribution           =     -62.77198803 Ry
     ewald contribution        =      60.56240849 Ry
     smearing contrib. (-TS)   =       0.00007725 Ry

     convergence has been achieved in  10 iterations

     Forces acting on atoms (Ry/au):


     negative rho (up, down):  1.667E-05 0.000E+00


     ----------------------------------------------------------------

     Non-local correlation energy =              0.837673662604551

     ----------------------------------------------------------------

     atom    1 type  1   force =     0.00000000    0.00000000    0.00013374
     atom    2 type  1   force =    -0.00000000   -0.00000000   -0.00013374
     The non-local contrib.  to forces
     atom    1 type  1   force =    -0.00000000   -0.00000000   -0.49387597
     atom    2 type  1   force =    -0.00000000   -0.00000000    0.49387597
     The ionic contribution  to forces
     atom    1 type  1   force =     0.00000000   -0.00000000   -5.78630438
     atom    2 type  1   force =    -0.00000000    0.00000000    5.78630438
     The local contribution  to forces
     atom    1 type  1   force =     0.00000000   -0.00000000    6.32731132
     atom    2 type  1   force =     0.00000000    0.00000000   -6.32731132
     The core correction contribution to forces
     atom    1 type  1   force =     0.00000000   -0.00000000   -0.04699709
     atom    2 type  1   force =     0.00000000   -0.00000000    0.04699708
     The Hubbard contrib.    to forces
     atom    1 type  1   force =     0.00000000    0.00000000    0.00000000
     atom    2 type  1   force =     0.00000000    0.00000000    0.00000000
     The SCF correction term to forces
     atom    1 type  1   force =     0.00000000    0.00000000   -0.00000015
     atom    2 type  1   force =    -0.00000000    0.00000000    0.00000016

     Total force =     0.000189     Total SCF correction =     0.000000


     entering subroutine stress ...


     negative rho (up, down):  1.667E-05 0.000E+00


     ----------------------------------------------------------------

     Non-local correlation energy =              0.837673662604551

     ----------------------------------------------------------------

          total   stress  (Ry/bohr**3)                   (kbar)     P=   -0.02
   0.00000027   0.00000000   0.00000000          0.04      0.00      0.00
   0.00000000   0.00000027   0.00000000          0.00      0.04      0.00
   0.00000000   0.00000000  -0.00000094          0.00      0.00     -0.14

     kinetic stress (kbar)    484.29      0.00     -0.00
                                0.00    484.29     -0.00
                               -0.00     -0.00    512.16

     local   stress (kbar) -12920.51     -0.00      0.00
                               -0.00 -12920.51     -0.00
                                0.00     -0.00  15974.31

     nonloc. stress (kbar)  -1009.09     -0.00      0.00
                               -0.00  -1009.09      0.00
                                0.00      0.00  -1021.60

     hartree stress (kbar)   6965.13     -0.00     -0.00
                               -0.00   6965.13      0.00
                               -0.00      0.00  -6875.41

     exc-cor stress (kbar)   4507.94      0.00     -0.00
                                0.00   4507.94      0.00
                               -0.00      0.00   4505.39

     corecor stress (kbar)  -4823.95      0.00      0.00
                                0.00  -4823.95     -0.00
                                0.00     -0.00  -4825.55

     ewald   stress (kbar)   6772.19      0.00     -0.00
                                0.00   6772.19      0.00
                               -0.00      0.00  -8298.53

     hubbard stress (kbar)      0.00      0.00      0.00
                                0.00      0.00      0.00
                                0.00      0.00      0.00

     london  stress (kbar)      0.00      0.00      0.00
                                0.00      0.00      0.00
                                0.00      0.00      0.00

     XDM     stress (kbar)      0.00      0.00      0.00
                                0.00      0.00      0.00
                                0.00      0.00      0.00

     dft-nl  stress (kbar)     24.04      0.00     -0.00
                                0.00     24.04      0.00
                               -0.00      0.00     29.08



     Writing output data file aiida.save
 
     init_run     :      3.90s CPU      4.79s WALL (       2 calls)
     electrons    :    265.06s CPU    286.90s WALL (      12 calls)
     update_pot   :     16.05s CPU     18.14s WALL (      10 calls)
     forces       :     18.75s CPU     19.18s WALL (      12 calls)
     stress       :     47.45s CPU     48.39s WALL (      12 calls)

     Called by init_run:
     wfcinit      :      1.12s CPU      1.14s WALL (       2 calls)
     potinit      :      1.04s CPU      1.12s WALL (       2 calls)

     Called by electrons:
     c_bands      :    140.01s CPU    144.70s WALL (     155 calls)
     sum_band     :     39.49s CPU     39.90s WALL (     155 calls)
     v_of_rho     :     67.10s CPU     72.32s WALL (     166 calls)
     v_h          :      0.58s CPU      0.69s WALL (     166 calls)
     v_xc         :     76.09s CPU     81.96s WALL (     190 calls)
     newd         :     21.42s CPU     22.04s WALL (     166 calls)
     mix_rho      :      1.46s CPU      1.45s WALL (     155 calls)
     vdW_energy   :     20.79s CPU     22.03s WALL (     190 calls)
     vdW_ffts     :     22.69s CPU     23.77s WALL (     404 calls)
     vdW_v        :      9.44s CPU      9.49s WALL (     190 calls)

     Called by c_bands:
     init_us_2    :      2.76s CPU      2.79s WALL (    8064 calls)
     cegterg      :    130.74s CPU    132.12s WALL (    3720 calls)

     Called by sum_band:
     sum_band:bec :      0.03s CPU      0.05s WALL (    3720 calls)
     addusdens    :     18.51s CPU     18.55s WALL (     155 calls)

     Called by *egterg:
     h_psi        :    101.73s CPU    102.58s WALL (   16939 calls)
     s_psi        :      2.96s CPU      2.83s WALL (   16939 calls)
     g_psi        :      0.58s CPU      0.71s WALL (   13171 calls)
     cdiaghg      :     12.87s CPU     13.12s WALL (   16627 calls)
     cegterg:over :      3.55s CPU      3.60s WALL (   13171 calls)
     cegterg:upda :      4.18s CPU      4.08s WALL (   13171 calls)
     cegterg:last :      1.09s CPU      1.22s WALL (    4083 calls)
     cdiaghg:chol :      1.19s CPU      1.36s WALL (   16627 calls)
     cdiaghg:inve :      0.31s CPU      0.37s WALL (   16627 calls)
     cdiaghg:para :      1.10s CPU      1.05s WALL (   33254 calls)

     Called by h_psi:
     h_psi:vloc   :     92.58s CPU     93.35s WALL (   16939 calls)
     h_psi:vnl    :      8.64s CPU      8.74s WALL (   16939 calls)
     add_vuspsi   :      3.82s CPU      3.70s WALL (   16939 calls)

     General routines
     calbec       :      6.03s CPU      6.23s WALL (   21235 calls)
     fft          :     37.37s CPU     38.83s WALL (   12950 calls)
     ffts         :      0.27s CPU      0.24s WALL (     321 calls)
     fftw         :     91.80s CPU     92.65s WALL (  224982 calls)
     interpolate  :      1.38s CPU      1.40s WALL (     321 calls)
 
     Parallel routines
     fft_scatter  :     27.84s CPU     28.78s WALL (  238253 calls)
 
     PWSCF        :  5m56.89s CPU     7m17.82s WALL

 
   This run was terminated on:  16:51:34  17Jul2015            

=------------------------------------------------------------------------------=
   JOB DONE.
=------------------------------------------------------------------------------=
Application 5173148 resources: utime ~3342s, stime ~92s, Rss ~93644, inblocks ~1224680, outblocks ~762498
