
     Program PWSCF v.5.0.2 (svn rev. 9392) starts on 25Apr2013 at 17: 0:40 

     This program is part of the open-source Quantum ESPRESSO suite
     for quantum simulation of materials; please cite
         "P. Giannozzi et al., J. Phys.:Condens. Matter 21 395502 (2009);
          URL http://www.quantum-espresso.org", 
     in publications or presentations arising from this work. More details at
     http://www.quantum-espresso.org/quote.php

     Serial version

     Current dimensions of program PWSCF are:
     Max number of different atomic species (ntypx) = 10
     Max number of k-points (npk) =  40000
     Max angular momentum in pseudopotentials (lmaxx) =  3
     Waiting for input...
     Reading input from standard input
     Message from routine setup:
     Dynamics, you should have no symmetries

     G-vector sticks info
     --------------------
     sticks:   dense  smooth     PW     G-vecs:    dense   smooth      PW
     Sum         109     109     37                 6689     6689    1411



     bravais-lattice index     =            6
     lattice parameter (alat)  =       5.3033  a.u.
     unit-cell volume          =    1193.2421 (a.u.)^3
     number of atoms/cell      =            7
     number of atomic types    =            1
     number of electrons       =        21.00
     number of Kohn-Sham states=           15
     kinetic-energy cutoff     =      12.0000  Ry
     charge density cutoff     =      48.0000  Ry
     convergence threshold     =      1.0E-07
     mixing beta               =       0.3000
     number of iterations used =            8  plain     mixing
     Exchange-correlation      =  SLA  PZ   NOGX NOGC ( 1 1 0 0 0)
     EXX-fraction              =        0.00
     nstep                     =           50


     celldm(1)=   5.303300  celldm(2)=   0.000000  celldm(3)=   8.000000
     celldm(4)=   0.000000  celldm(5)=   0.000000  celldm(6)=   0.000000

     crystal axes: (cart. coord. in units of alat)
               a(1) = (   1.000000   0.000000   0.000000 )  
               a(2) = (   0.000000   1.000000   0.000000 )  
               a(3) = (   0.000000   0.000000   8.000000 )  

     reciprocal axes: (cart. coord. in units 2 pi/alat)
               b(1) = (  1.000000  0.000000  0.000000 )  
               b(2) = (  0.000000  1.000000  0.000000 )  
               b(3) = (  0.000000  0.000000  0.125000 )  


     PseudoPot. # 1 for Al read from file:
     /path_to/pseudo/Al.pz-vbc.UPF
     MD5 check sum: 614279c88ff8d45c90147292d03ed420
     Pseudo is Norm-conserving, Zval =  3.0
     Generated by new atomic code, or converted to UPF format
     Using radial grid of  171 points,  2 beta functions with: 
                l(1) =   0
                l(2) =   1

     atomic species   valence    mass     pseudopotential
        Al             3.00     1.00000     Al( 1.00)

     16 Sym. Ops., with inversion, found



   Cartesian axes

     site n.     atom                  positions (alat units)
         1           Al  tau(   1) = (   0.5000000   0.5000000  -2.1213200  )
         2           Al  tau(   2) = (   0.0000000   0.0000000  -1.4142130  )
         3           Al  tau(   3) = (   0.5000000   0.5000000  -0.7071070  )
         4           Al  tau(   4) = (   0.0000000   0.0000000   0.0000000  )
         5           Al  tau(   5) = (   0.5000000   0.5000000   0.7071070  )
         6           Al  tau(   6) = (   0.0000000   0.0000000   1.4142130  )
         7           Al  tau(   7) = (   0.5000000   0.5000000   2.1213200  )

     number of k points=     3  Methfessel-Paxton smearing, width (Ry)=  0.0500
                       cart. coord. in units 2pi/alat
        k(    1) = (   0.1250000   0.1250000   0.0000000), wk =   0.5000000
        k(    2) = (   0.1250000   0.3750000   0.0000000), wk =   1.0000000
        k(    3) = (   0.3750000   0.3750000   0.0000000), wk =   0.5000000

     Dense  grid:     6689 G-vectors     FFT dimensions: (  12,  12,  96)

     Largest allocated arrays     est. size (Mb)     dimensions
        Kohn-Sham Wavefunctions         0.20 Mb     (    860,   15)
        NL pseudopotentials             0.37 Mb     (    860,   28)
        Each V/rho on FFT grid          0.21 Mb     (  13824)
        Each G-vector array             0.05 Mb     (   6689)
        G-vector shells                 0.00 Mb     (    351)
     Largest temporary arrays     est. size (Mb)     dimensions
        Auxiliary wavefunctions         0.79 Mb     (    860,   60)
        Each subspace H/S matrix        0.05 Mb     (  60,  60)
        Each <psi_i|beta_j> matrix      0.01 Mb     (     28,   15)
        Arrays for rho mixing           1.69 Mb     (  13824,   8)

     Initial potential from superposition of free atoms
     Check: negative starting charge=   -0.000275

     starting charge   20.98560, renormalised to   21.00000

     negative rho (up, down):  0.276E-03 0.000E+00
     Starting wfc are   28 randomized atomic wfcs

     total cpu time spent up to now is        0.1 secs

     Self-consistent Calculation

     iteration #  1     ecut=    12.00 Ry     beta=0.30
     Davidson diagonalization with overlap
     ethr =  1.00E-02,  avg # of iterations =  3.0

     negative rho (up, down):  0.187E-03 0.000E+00

     total cpu time spent up to now is        0.2 secs

     total energy              =     -28.85221141 Ry
     Harris-Foulkes estimate   =     -29.29340698 Ry
     estimated scf accuracy    <       0.92873941 Ry

     iteration #  2     ecut=    12.00 Ry     beta=0.30
     Davidson diagonalization with overlap
     ethr =  4.42E-03,  avg # of iterations =  4.0

     total cpu time spent up to now is        0.3 secs

     total energy              =     -27.68024365 Ry
     Harris-Foulkes estimate   =     -30.53400996 Ry
     estimated scf accuracy    <      39.10561646 Ry

     iteration #  3     ecut=    12.00 Ry     beta=0.30
     Davidson diagonalization with overlap
     ethr =  4.42E-03,  avg # of iterations =  4.7

     total cpu time spent up to now is        0.5 secs

     total energy              =     -29.21379581 Ry
     Harris-Foulkes estimate   =     -29.23657710 Ry
     estimated scf accuracy    <       0.23755208 Ry

     iteration #  4     ecut=    12.00 Ry     beta=0.30
     Davidson diagonalization with overlap
     ethr =  1.13E-03,  avg # of iterations =  1.3

     total cpu time spent up to now is        0.5 secs

     total energy              =     -29.21561639 Ry
     Harris-Foulkes estimate   =     -29.22399168 Ry
     estimated scf accuracy    <       0.04594646 Ry

     iteration #  5     ecut=    12.00 Ry     beta=0.30
     Davidson diagonalization with overlap
     ethr =  2.19E-04,  avg # of iterations =  3.0

     total cpu time spent up to now is        0.6 secs

     total energy              =     -29.21943300 Ry
     Harris-Foulkes estimate   =     -29.22031634 Ry
     estimated scf accuracy    <       0.00650836 Ry

     iteration #  6     ecut=    12.00 Ry     beta=0.30
     Davidson diagonalization with overlap
     ethr =  3.10E-05,  avg # of iterations =  2.3

     total cpu time spent up to now is        0.7 secs

     total energy              =     -29.21991273 Ry
     Harris-Foulkes estimate   =     -29.21994391 Ry
     estimated scf accuracy    <       0.00082029 Ry

     iteration #  7     ecut=    12.00 Ry     beta=0.30
     Davidson diagonalization with overlap
     ethr =  3.91E-06,  avg # of iterations =  3.0

     total cpu time spent up to now is        0.8 secs

     total energy              =     -29.21995477 Ry
     Harris-Foulkes estimate   =     -29.21996819 Ry
     estimated scf accuracy    <       0.00009068 Ry

     iteration #  8     ecut=    12.00 Ry     beta=0.30
     Davidson diagonalization with overlap
     ethr =  4.32E-07,  avg # of iterations =  2.3

     total cpu time spent up to now is        0.9 secs

     total energy              =     -29.21995746 Ry
     Harris-Foulkes estimate   =     -29.21996109 Ry
     estimated scf accuracy    <       0.00002386 Ry

     iteration #  9     ecut=    12.00 Ry     beta=0.30
     Davidson diagonalization with overlap
     ethr =  1.14E-07,  avg # of iterations =  3.0

     total cpu time spent up to now is        1.0 secs

     total energy              =     -29.21995993 Ry
     Harris-Foulkes estimate   =     -29.21996102 Ry
     estimated scf accuracy    <       0.00000885 Ry

     iteration # 10     ecut=    12.00 Ry     beta=0.30
     Davidson diagonalization with overlap
     ethr =  4.21E-08,  avg # of iterations =  1.3

     total cpu time spent up to now is        1.1 secs

     End of self-consistent calculation

          k = 0.1250 0.1250 0.0000 (   822 PWs)   bands (ev):

    -7.0790  -6.5552  -5.7174  -4.5663  -3.1472  -1.4538   0.5130   1.7884
     4.3697   5.5244   5.9953   6.2181   6.7546   7.2250   7.4961

          k = 0.1250 0.3750 0.0000 (   847 PWs)   bands (ev):

    -4.7555  -4.2392  -3.4161  -2.2857  -0.8947  -0.2551   0.2238   0.8005
     1.0422   2.1352   2.7201   3.5256   3.8934   5.1677   6.5172

          k = 0.3750 0.3750 0.0000 (   860 PWs)   bands (ev):

    -2.4879  -1.9832  -1.1752  -0.0657   1.2961   1.3317   1.7993   2.5504
     2.7201   2.8086   3.4481   3.5987   4.1260   4.9120   4.9357

     the Fermi energy is     3.4732 ev

!    total energy              =     -29.21996046 Ry
     Harris-Foulkes estimate   =     -29.21996045 Ry
     estimated scf accuracy    <       0.00000006 Ry

     convergence has been achieved in  10 iterations

     Forces acting on atoms (Ry/au):

     atom    1 type  1   force =     0.00000000    0.00000000    0.01016766
     atom    2 type  1   force =     0.00000000    0.00000000   -0.00112981
     atom    3 type  1   force =     0.00000000    0.00000000    0.00255994
     atom    4 type  1   force =     0.00000000    0.00000000    0.00000000
     atom    5 type  1   force =     0.00000000    0.00000000   -0.00255994
     atom    6 type  1   force =     0.00000000    0.00000000    0.00112981
     atom    7 type  1   force =     0.00000000    0.00000000   -0.01016766

     Total force =     0.014914     Total SCF correction =     0.000168

     Damped Dynamics Calculation

     Entering Dynamics:    iteration =     1

ATOMIC_POSITIONS (alat)
Al       0.500000000   0.500000000  -2.119426840
Al       0.000000000   0.000000000  -1.414423364
Al       0.500000000   0.500000000  -0.706630354
Al       0.000000000   0.000000000   0.000000000
Al       0.500000000   0.500000000   0.706630354
Al       0.000000000   0.000000000   1.414423364
Al       0.500000000   0.500000000   2.119426840



     Writing output data file pwscf.save
     Check: negative starting charge=   -0.000275
     NEW-OLD atomic charge density approx. for the potential
     Check: negative starting charge=   -0.000280

     negative rho (up, down):  0.172E-05 0.000E+00

     total cpu time spent up to now is        1.1 secs

     Self-consistent Calculation

     iteration #  1     ecut=    12.00 Ry     beta=0.30
     Davidson diagonalization with overlap
     ethr =  1.00E-06,  avg # of iterations =  2.7

     Threshold (ethr) on eigenvalues was too large:
     Diagonalizing with lowered threshold

     Davidson diagonalization with overlap
     ethr =  8.74E-08,  avg # of iterations =  1.7

     negative rho (up, down):  0.275E-06 0.000E+00

     total cpu time spent up to now is        1.3 secs

     total energy              =     -29.22016665 Ry
     Harris-Foulkes estimate   =     -29.22017420 Ry
     estimated scf accuracy    <       0.00001760 Ry

     iteration #  2     ecut=    12.00 Ry     beta=0.30
     Davidson diagonalization with overlap
     ethr =  8.38E-08,  avg # of iterations =  3.0

     negative rho (up, down):  0.221E-06 0.000E+00

     total cpu time spent up to now is        1.4 secs

     total energy              =     -29.22015635 Ry
     Harris-Foulkes estimate   =     -29.22018380 Ry
     estimated scf accuracy    <       0.00031963 Ry

     iteration #  3     ecut=    12.00 Ry     beta=0.30
     Davidson diagonalization with overlap
     ethr =  8.38E-08,  avg # of iterations =  2.7

     negative rho (up, down):  0.140E-07 0.000E+00

     total cpu time spent up to now is        1.5 secs

     total energy              =     -29.22017093 Ry
     Harris-Foulkes estimate   =     -29.22017175 Ry
     estimated scf accuracy    <       0.00000785 Ry

     iteration #  4     ecut=    12.00 Ry     beta=0.30
     Davidson diagonalization with overlap
     ethr =  3.74E-08,  avg # of iterations =  1.7

     total cpu time spent up to now is        1.6 secs

     total energy              =     -29.22017130 Ry
     Harris-Foulkes estimate   =     -29.22017147 Ry
     estimated scf accuracy    <       0.00000086 Ry

     iteration #  5     ecut=    12.00 Ry     beta=0.30
     Davidson diagonalization with overlap
     ethr =  4.07E-09,  avg # of iterations =  2.0

     total cpu time spent up to now is        1.7 secs

     total energy              =     -29.22017143 Ry
     Harris-Foulkes estimate   =     -29.22017141 Ry
     estimated scf accuracy    <       0.00000010 Ry

     iteration #  6     ecut=    12.00 Ry     beta=0.30
     Davidson diagonalization with overlap
     ethr =  4.91E-10,  avg # of iterations =  2.0

     total cpu time spent up to now is        1.7 secs

     End of self-consistent calculation

          k = 0.1250 0.1250 0.0000 (   822 PWs)   bands (ev):

    -7.0837  -6.5611  -5.7283  -4.5716  -3.1454  -1.4514   0.5172   1.7927
     4.3755   5.5196   5.9889   6.2244   6.7420   7.2243   7.5028

          k = 0.1250 0.3750 0.0000 (   847 PWs)   bands (ev):

    -4.7602  -4.2451  -3.4270  -2.2911  -0.8932  -0.2598   0.2178   0.8027
     1.0311   2.1294   2.7241   3.5270   3.8968   5.1705   6.5228

          k = 0.3750 0.3750 0.0000 (   860 PWs)   bands (ev):

    -2.4926  -1.9892  -1.1863  -0.0714   1.2973   1.3269   1.7930   2.5382
     2.7154   2.8077   3.4451   3.5921   4.1163   4.9140   4.9393

     the Fermi energy is     3.4724 ev

!    total energy              =     -29.22017145 Ry
     Harris-Foulkes estimate   =     -29.22017145 Ry
     estimated scf accuracy    <       0.00000001 Ry

     convergence has been achieved in   6 iterations

     Forces acting on atoms (Ry/au):

     atom    1 type  1   force =     0.00000000    0.00000000    0.00948537
     atom    2 type  1   force =     0.00000000    0.00000000   -0.00039838
     atom    3 type  1   force =     0.00000000    0.00000000    0.00223205
     atom    4 type  1   force =     0.00000000    0.00000000    0.00000000
     atom    5 type  1   force =     0.00000000    0.00000000   -0.00223205
     atom    6 type  1   force =     0.00000000    0.00000000    0.00039838
     atom    7 type  1   force =     0.00000000    0.00000000   -0.00948537

     Total force =     0.013792     Total SCF correction =     0.000104

     Entering Dynamics:    iteration =     2

     <vel(dt)|acc(dt)> =   0.99785933

ATOMIC_POSITIONS (alat)
Al       0.500000000   0.500000000  -2.093715755
Al       0.000000000   0.000000000  -1.415576018
Al       0.500000000   0.500000000  -0.700562807
Al       0.000000000   0.000000000   0.000000000
Al       0.500000000   0.500000000   0.700562807
Al       0.000000000   0.000000000   1.415576018
Al       0.500000000   0.500000000   2.093715755



     Writing output data file pwscf.save

     first order wave-functions extrapolation
     Check: negative starting charge=   -0.000280
     first order charge density extrapolation
     Check: negative starting charge=   -0.000283

     negative rho (up, down):  0.300E-03 0.000E+00

     total cpu time spent up to now is        1.8 secs

     Self-consistent Calculation

     iteration #  1     ecut=    12.00 Ry     beta=0.30
     Davidson diagonalization with overlap
     ethr =  1.00E-06,  avg # of iterations =  7.3

     negative rho (up, down):  0.171E-03 0.000E+00

     total cpu time spent up to now is        2.0 secs

     total energy              =     -29.22113453 Ry
     Harris-Foulkes estimate   =     -29.22194341 Ry
     estimated scf accuracy    <       0.00202634 Ry

     iteration #  2     ecut=    12.00 Ry     beta=0.30
     Davidson diagonalization with overlap
     ethr =  9.65E-06,  avg # of iterations =  3.3

     negative rho (up, down):  0.125E-03 0.000E+00

     total cpu time spent up to now is        2.1 secs

     total energy              =     -29.22125345 Ry
     Harris-Foulkes estimate   =     -29.22161129 Ry
     estimated scf accuracy    <       0.00122278 Ry

     iteration #  3     ecut=    12.00 Ry     beta=0.30
     Davidson diagonalization with overlap
     ethr =  5.82E-06,  avg # of iterations =  2.7

     negative rho (up, down):  0.104E-03 0.000E+00

     total cpu time spent up to now is        2.2 secs

     total energy              =     -29.22114318 Ry
     Harris-Foulkes estimate   =     -29.22177957 Ry
     estimated scf accuracy    <       0.00690866 Ry

     iteration #  4     ecut=    12.00 Ry     beta=0.30
     Davidson diagonalization with overlap
     ethr =  5.82E-06,  avg # of iterations =  2.7

     negative rho (up, down):  0.621E-04 0.000E+00

     total cpu time spent up to now is        2.3 secs

     total energy              =     -29.22147356 Ry
     Harris-Foulkes estimate   =     -29.22153406 Ry
     estimated scf accuracy    <       0.00052762 Ry

     iteration #  5     ecut=    12.00 Ry     beta=0.30
     Davidson diagonalization with overlap
     ethr =  2.51E-06,  avg # of iterations =  1.7

     negative rho (up, down):  0.718E-05 0.000E+00

     total cpu time spent up to now is        2.4 secs

     total energy              =     -29.22150488 Ry
     Harris-Foulkes estimate   =     -29.22150337 Ry
     estimated scf accuracy    <       0.00001853 Ry

     iteration #  6     ecut=    12.00 Ry     beta=0.30
     Davidson diagonalization with overlap
     ethr =  8.82E-08,  avg # of iterations =  3.0

     negative rho (up, down):  0.236E-07 0.000E+00

     total cpu time spent up to now is        2.5 secs

     total energy              =     -29.22150776 Ry
     Harris-Foulkes estimate   =     -29.22150784 Ry
     estimated scf accuracy    <       0.00000577 Ry

     iteration #  7     ecut=    12.00 Ry     beta=0.30
     Davidson diagonalization with overlap
     ethr =  2.75E-08,  avg # of iterations =  2.0

     total cpu time spent up to now is        2.5 secs

     total energy              =     -29.22150826 Ry
     Harris-Foulkes estimate   =     -29.22150894 Ry
     estimated scf accuracy    <       0.00000578 Ry

     iteration #  8     ecut=    12.00 Ry     beta=0.30
     Davidson diagonalization with overlap
     ethr =  2.75E-08,  avg # of iterations =  2.0

     total cpu time spent up to now is        2.6 secs

     total energy              =     -29.22150873 Ry
     Harris-Foulkes estimate   =     -29.22150874 Ry
     estimated scf accuracy    <       0.00000029 Ry

     iteration #  9     ecut=    12.00 Ry     beta=0.30
     Davidson diagonalization with overlap
     ethr =  1.39E-09,  avg # of iterations =  2.0

     total cpu time spent up to now is        2.7 secs

     total energy              =     -29.22150872 Ry
     Harris-Foulkes estimate   =     -29.22150874 Ry
     estimated scf accuracy    <       0.00000013 Ry

     iteration # 10     ecut=    12.00 Ry     beta=0.30
     Davidson diagonalization with overlap
     ethr =  6.30E-10,  avg # of iterations =  2.0

     total cpu time spent up to now is        2.8 secs

     End of self-consistent calculation

          k = 0.1250 0.1250 0.0000 (   822 PWs)   bands (ev):

    -7.1564  -6.6570  -5.8746  -4.6425  -3.1308  -1.4235   0.5702   1.8487
     4.4501   5.4426   5.8813   6.2924   6.5711   7.1845   7.5270

          k = 0.1250 0.3750 0.0000 (   847 PWs)   bands (ev):

    -4.8328  -4.3411  -3.5742  -2.3643  -0.8825  -0.3334   0.1194   0.8278
     0.8813   2.0512   2.7733   3.5378   3.9413   5.2024   6.5933

          k = 0.3750 0.3750 0.0000 (   860 PWs)   bands (ev):

    -2.5657  -2.0865  -1.3362  -0.1476   1.2515   1.3033   1.6893   2.3737
     2.6410   2.7809   3.4003   3.5044   3.9844   4.9316   4.9864

     the Fermi energy is     3.4552 ev

!    total energy              =     -29.22150873 Ry
     Harris-Foulkes estimate   =     -29.22150873 Ry
     estimated scf accuracy    <          8.9E-09 Ry

     convergence has been achieved in  10 iterations

     Forces acting on atoms (Ry/au):

     atom    1 type  1   force =     0.00000000    0.00000000    0.00021225
     atom    2 type  1   force =     0.00000000    0.00000000    0.00928907
     atom    3 type  1   force =     0.00000000    0.00000000   -0.00150043
     atom    4 type  1   force =     0.00000000    0.00000000    0.00000000
     atom    5 type  1   force =     0.00000000    0.00000000    0.00150043
     atom    6 type  1   force =     0.00000000    0.00000000   -0.00928907
     atom    7 type  1   force =     0.00000000    0.00000000   -0.00021225

     Total force =     0.013310     Total SCF correction =     0.000170

     Entering Dynamics:    iteration =     3

     <vel(dt)|acc(dt)> =   0.03290628

ATOMIC_POSITIONS (alat)
Al       0.500000000   0.500000000  -2.093447553
Al       0.000000000   0.000000000  -1.413172708
Al       0.500000000   0.500000000  -0.700892748
Al       0.000000000   0.000000000   0.000000000
Al       0.500000000   0.500000000   0.700892748
Al       0.000000000   0.000000000   1.413172708
Al       0.500000000   0.500000000   2.093447553



     Writing output data file pwscf.save

     second order wave-functions extrapolation
     Check: negative starting charge=   -0.000283
     second order charge density extrapolation
     Check: negative starting charge=   -0.000284

     negative rho (up, down):  0.142E-03 0.000E+00

     total cpu time spent up to now is        2.9 secs

     Self-consistent Calculation

     iteration #  1     ecut=    12.00 Ry     beta=0.30
     Davidson diagonalization with overlap
     ethr =  1.00E-06,  avg # of iterations =  4.7

     negative rho (up, down):  0.841E-04 0.000E+00

     total cpu time spent up to now is        3.0 secs

     total energy              =     -29.22095305 Ry
     Harris-Foulkes estimate   =     -29.22183288 Ry
     estimated scf accuracy    <       0.00178828 Ry

     iteration #  2     ecut=    12.00 Ry     beta=0.30
     Davidson diagonalization with overlap
     ethr =  8.52E-06,  avg # of iterations =  3.3

     negative rho (up, down):  0.791E-04 0.000E+00

     total cpu time spent up to now is        3.1 secs

     total energy              =     -29.21929522 Ry
     Harris-Foulkes estimate   =     -29.22411778 Ry
     estimated scf accuracy    <       0.05908563 Ry

     iteration #  3     ecut=    12.00 Ry     beta=0.30
     Davidson diagonalization with overlap
     ethr =  8.52E-06,  avg # of iterations =  3.0

     negative rho (up, down):  0.630E-04 0.000E+00

     total cpu time spent up to now is        3.2 secs

     total energy              =     -29.22169702 Ry
     Harris-Foulkes estimate   =     -29.22176501 Ry
     estimated scf accuracy    <       0.00040097 Ry

     iteration #  4     ecut=    12.00 Ry     beta=0.30
     Davidson diagonalization with overlap
     ethr =  1.91E-06,  avg # of iterations =  1.3

     negative rho (up, down):  0.362E-04 0.000E+00

     total cpu time spent up to now is        3.3 secs

     total energy              =     -29.22173052 Ry
     Harris-Foulkes estimate   =     -29.22172941 Ry
     estimated scf accuracy    <       0.00000173 Ry

     iteration #  5     ecut=    12.00 Ry     beta=0.30
     Davidson diagonalization with overlap
     ethr =  8.24E-09,  avg # of iterations =  3.3

     negative rho (up, down):  0.403E-06 0.000E+00

     total cpu time spent up to now is        3.4 secs

     total energy              =     -29.22173302 Ry
     Harris-Foulkes estimate   =     -29.22173199 Ry
     estimated scf accuracy    <       0.00000133 Ry

     iteration #  6     ecut=    12.00 Ry     beta=0.30
     Davidson diagonalization with overlap
     ethr =  6.33E-09,  avg # of iterations =  2.3

     total cpu time spent up to now is        3.5 secs

     total energy              =     -29.22173322 Ry
     Harris-Foulkes estimate   =     -29.22173321 Ry
     estimated scf accuracy    <       0.00000028 Ry

     iteration #  7     ecut=    12.00 Ry     beta=0.30
     Davidson diagonalization with overlap
     ethr =  1.33E-09,  avg # of iterations =  1.7

     total cpu time spent up to now is        3.6 secs

     End of self-consistent calculation

          k = 0.1250 0.1250 0.0000 (   822 PWs)   bands (ev):

    -7.1609  -6.6596  -5.8649  -4.6398  -3.1360  -1.4238   0.5705   1.8486
     4.4536   5.4381   5.8792   6.2941   6.5829   7.1808   7.5303

          k = 0.1250 0.3750 0.0000 (   847 PWs)   bands (ev):

    -4.8374  -4.3437  -3.5646  -2.3615  -0.8878  -0.3379   0.1168   0.8276
     0.8912   2.0542   2.7730   3.5330   3.9419   5.2012   6.5966

          k = 0.3750 0.3750 0.0000 (   860 PWs)   bands (ev):

    -2.5702  -2.0891  -1.3264  -0.1448   1.2471   1.2979   1.6872   2.3848
     2.6363   2.7790   3.3991   3.5078   3.9927   4.9236   4.9867

     the Fermi energy is     3.4542 ev

!    total energy              =     -29.22173327 Ry
     Harris-Foulkes estimate   =     -29.22173326 Ry
     estimated scf accuracy    <       0.00000002 Ry

     convergence has been achieved in   7 iterations

     Forces acting on atoms (Ry/au):

     atom    1 type  1   force =     0.00000000    0.00000000    0.00090431
     atom    2 type  1   force =     0.00000000    0.00000000    0.00789123
     atom    3 type  1   force =     0.00000000    0.00000000   -0.00079396
     atom    4 type  1   force =     0.00000000    0.00000000    0.00000000
     atom    5 type  1   force =     0.00000000    0.00000000    0.00079396
     atom    6 type  1   force =     0.00000000    0.00000000   -0.00789123
     atom    7 type  1   force =     0.00000000    0.00000000   -0.00090431

     Total force =     0.011289     Total SCF correction =     0.000197

     Entering Dynamics:    iteration =     4

     <vel(dt)|acc(dt)> =   0.85131585

ATOMIC_POSITIONS (alat)
Al       0.500000000   0.500000000  -2.075513656
Al       0.000000000   0.000000000  -1.389200526
Al       0.500000000   0.500000000  -0.700270895
Al       0.000000000   0.000000000   0.000000000
Al       0.500000000   0.500000000   0.700270895
Al       0.000000000   0.000000000   1.389200526
Al       0.500000000   0.500000000   2.075513656



     Writing output data file pwscf.save

     second order wave-functions extrapolation
     Check: negative starting charge=   -0.000284
     second order charge density extrapolation
     Check: negative starting charge=   -0.000295

     negative rho (up, down):  0.774E-04 0.000E+00

     total cpu time spent up to now is        3.7 secs

     Self-consistent Calculation

     iteration #  1     ecut=    12.00 Ry     beta=0.30
     Davidson diagonalization with overlap
     ethr =  1.00E-06,  avg # of iterations =  4.0

     Threshold (ethr) on eigenvalues was too large:
     Diagonalizing with lowered threshold

     Davidson diagonalization with overlap
     ethr =  7.96E-08,  avg # of iterations =  1.3

     negative rho (up, down):  0.440E-04 0.000E+00

     total cpu time spent up to now is        3.9 secs

     total energy              =     -29.22290473 Ry
     Harris-Foulkes estimate   =     -29.22290834 Ry
     estimated scf accuracy    <       0.00001644 Ry

     iteration #  2     ecut=    12.00 Ry     beta=0.30
     Davidson diagonalization with overlap
     ethr =  7.83E-08,  avg # of iterations =  2.3

     negative rho (up, down):  0.350E-04 0.000E+00

     total cpu time spent up to now is        4.0 secs

     total energy              =     -29.22290804 Ry
     Harris-Foulkes estimate   =     -29.22291213 Ry
     estimated scf accuracy    <       0.00002153 Ry

     iteration #  3     ecut=    12.00 Ry     beta=0.30
     Davidson diagonalization with overlap
     ethr =  7.83E-08,  avg # of iterations =  2.0

     negative rho (up, down):  0.320E-04 0.000E+00

     total cpu time spent up to now is        4.1 secs

     total energy              =     -29.22290992 Ry
     Harris-Foulkes estimate   =     -29.22291160 Ry
     estimated scf accuracy    <       0.00002312 Ry

     iteration #  4     ecut=    12.00 Ry     beta=0.30
     Davidson diagonalization with overlap
     ethr =  7.83E-08,  avg # of iterations =  1.3

     negative rho (up, down):  0.439E-05 0.000E+00

     total cpu time spent up to now is        4.1 secs

     total energy              =     -29.22291314 Ry
     Harris-Foulkes estimate   =     -29.22291100 Ry
     estimated scf accuracy    <       0.00000069 Ry

     iteration #  5     ecut=    12.00 Ry     beta=0.30
     Davidson diagonalization with overlap
     ethr =  3.30E-09,  avg # of iterations =  1.7

     total cpu time spent up to now is        4.2 secs

     total energy              =     -29.22291354 Ry
     Harris-Foulkes estimate   =     -29.22291316 Ry
     estimated scf accuracy    <       0.00000011 Ry

     iteration #  6     ecut=    12.00 Ry     beta=0.30
     Davidson diagonalization with overlap
     ethr =  5.23E-10,  avg # of iterations =  1.3

     total cpu time spent up to now is        4.3 secs

     End of self-consistent calculation

          k = 0.1250 0.1250 0.0000 (   822 PWs)   bands (ev):

    -7.2584  -6.7544  -5.8569  -4.6519  -3.1797  -1.4120   0.6023   1.8826
     4.5297   5.3355   5.7780   6.3388   6.5965   7.1087   7.5751

          k = 0.1250 0.3750 0.0000 (   847 PWs)   bands (ev):

    -4.9346  -4.4388  -3.5575  -2.3752  -0.9347  -0.4359   0.0200   0.8383
     0.8997   2.0398   2.7963   3.4924   3.9762   5.2070   6.6673

          k = 0.3750 0.3750 0.0000 (   860 PWs)   bands (ev):

    -2.6683  -2.1855  -1.3199  -0.1600   1.1468   1.2474   1.5881   2.3955
     2.5366   2.7286   3.3632   3.4925   3.9949   4.8535   5.0152

     the Fermi energy is     3.4334 ev

!    total energy              =     -29.22291354 Ry
     Harris-Foulkes estimate   =     -29.22291354 Ry
     estimated scf accuracy    <       0.00000001 Ry

     convergence has been achieved in   6 iterations

     Forces acting on atoms (Ry/au):

     atom    1 type  1   force =     0.00000000    0.00000000    0.00178652
     atom    2 type  1   force =     0.00000000    0.00000000   -0.00102385
     atom    3 type  1   force =     0.00000000    0.00000000    0.00485496
     atom    4 type  1   force =     0.00000000    0.00000000    0.00000000
     atom    5 type  1   force =     0.00000000    0.00000000   -0.00485496
     atom    6 type  1   force =     0.00000000    0.00000000    0.00102385
     atom    7 type  1   force =     0.00000000    0.00000000   -0.00178652

     Total force =     0.007458     Total SCF correction =     0.000174

     Entering Dynamics:    iteration =     5

     <vel(dt)|acc(dt)> =   0.84989792

ATOMIC_POSITIONS (alat)
Al       0.500000000   0.500000000  -2.046009850
Al       0.000000000   0.000000000  -1.376187743
Al       0.500000000   0.500000000  -0.692180022
Al       0.000000000   0.000000000   0.000000000
Al       0.500000000   0.500000000   0.692180022
Al       0.000000000   0.000000000   1.376187743
Al       0.500000000   0.500000000   2.046009850



     Writing output data file pwscf.save

     second order wave-functions extrapolation
     Check: negative starting charge=   -0.000295
     second order charge density extrapolation
     Check: negative starting charge=   -0.000287

     negative rho (up, down):  0.192E-03 0.000E+00

     total cpu time spent up to now is        4.4 secs

     Self-consistent Calculation

     iteration #  1     ecut=    12.00 Ry     beta=0.30
     Davidson diagonalization with overlap
     ethr =  1.00E-06,  avg # of iterations =  5.0

     negative rho (up, down):  0.115E-03 0.000E+00

     total cpu time spent up to now is        4.5 secs

     total energy              =     -29.22267544 Ry
     Harris-Foulkes estimate   =     -29.22281959 Ry
     estimated scf accuracy    <       0.00032953 Ry

     iteration #  2     ecut=    12.00 Ry     beta=0.30
     Davidson diagonalization with overlap
     ethr =  1.57E-06,  avg # of iterations =  3.0

     negative rho (up, down):  0.102E-03 0.000E+00

     total cpu time spent up to now is        4.6 secs

     total energy              =     -29.22260319 Ry
     Harris-Foulkes estimate   =     -29.22289371 Ry
     estimated scf accuracy    <       0.00207389 Ry

     iteration #  3     ecut=    12.00 Ry     beta=0.30
     Davidson diagonalization with overlap
     ethr =  1.57E-06,  avg # of iterations =  5.3

     negative rho (up, down):  0.824E-04 0.000E+00

     total cpu time spent up to now is        4.8 secs

     total energy              =     -29.22273052 Ry
     Harris-Foulkes estimate   =     -29.22283548 Ry
     estimated scf accuracy    <       0.00116017 Ry

     iteration #  4     ecut=    12.00 Ry     beta=0.30
     Davidson diagonalization with overlap
     ethr =  1.57E-06,  avg # of iterations =  2.3

     negative rho (up, down):  0.156E-04 0.000E+00

     total cpu time spent up to now is        4.8 secs

     total energy              =     -29.22278523 Ry
     Harris-Foulkes estimate   =     -29.22278269 Ry
     estimated scf accuracy    <       0.00000449 Ry

     iteration #  5     ecut=    12.00 Ry     beta=0.30
     Davidson diagonalization with overlap
     ethr =  2.14E-08,  avg # of iterations =  2.0

     negative rho (up, down):  0.238E-05 0.000E+00

     total cpu time spent up to now is        4.9 secs

     total energy              =     -29.22278652 Ry
     Harris-Foulkes estimate   =     -29.22278582 Ry
     estimated scf accuracy    <       0.00000039 Ry

     iteration #  6     ecut=    12.00 Ry     beta=0.30
     Davidson diagonalization with overlap
     ethr =  1.84E-09,  avg # of iterations =  2.3

     total cpu time spent up to now is        5.0 secs

     End of self-consistent calculation

          k = 0.1250 0.1250 0.0000 (   822 PWs)   bands (ev):

    -7.3801  -6.8755  -5.9728  -4.7174  -3.1899  -1.3887   0.6590   1.9461
     4.6268   5.2070   5.6459   6.3921   6.4628   7.0236   7.6238

          k = 0.1250 0.3750 0.0000 (   847 PWs)   bands (ev):

    -5.0561  -4.5604  -3.6745  -2.4435  -0.9518  -0.5578  -0.1042   0.7816
     0.8592   1.9674   2.8451   3.4816   4.0296   5.2292   6.7568

          k = 0.3750 0.3750 0.0000 (   860 PWs)   bands (ev):

    -2.7907  -2.3085  -1.4397  -0.2319   1.0213   1.2241   1.4598   2.2657
     2.4121   2.6556   3.3340   3.4103   3.8880   4.8318   5.0359

     the Fermi energy is     3.4105 ev

!    total energy              =     -29.22278699 Ry
     Harris-Foulkes estimate   =     -29.22278656 Ry
     estimated scf accuracy    <       0.00000009 Ry

     convergence has been achieved in   6 iterations

     Forces acting on atoms (Ry/au):

     atom    1 type  1   force =     0.00000000    0.00000000   -0.00555753
     atom    2 type  1   force =     0.00000000    0.00000000    0.00221282
     atom    3 type  1   force =     0.00000000    0.00000000    0.00356306
     atom    4 type  1   force =     0.00000000    0.00000000    0.00000000
     atom    5 type  1   force =     0.00000000    0.00000000   -0.00356306
     atom    6 type  1   force =     0.00000000    0.00000000   -0.00221282
     atom    7 type  1   force =     0.00000000    0.00000000    0.00555753

     Total force =     0.009847     Total SCF correction =     0.000057

     Entering Dynamics:    iteration =     6

     <vel(dt)|acc(dt)> =  -0.98567234

ATOMIC_POSITIONS (alat)
Al       0.500000000   0.500000000  -2.060454998
Al       0.000000000   0.000000000  -1.383383739
Al       0.500000000   0.500000000  -0.693518423
Al       0.000000000   0.000000000   0.000000000
Al       0.500000000   0.500000000   0.693518423
Al       0.000000000   0.000000000   1.383383739
Al       0.500000000   0.500000000   2.060454998



     Writing output data file pwscf.save

     second order wave-functions extrapolation
     Message from extrapolate_wfcs: 
     the matrix <psi(t-dt)|psi(t)> has  1 small (< 0.1) eigenvalues
     Check: negative starting charge=   -0.000287
     second order charge density extrapolation
     Check: negative starting charge=   -0.000299

     negative rho (up, down):  0.153E-04 0.000E+00

     total cpu time spent up to now is        5.1 secs

     Self-consistent Calculation

     iteration #  1     ecut=    12.00 Ry     beta=0.30
     Davidson diagonalization with overlap
     ethr =  1.00E-06,  avg # of iterations =  4.7

     negative rho (up, down):  0.698E-05 0.000E+00

     total cpu time spent up to now is        5.2 secs

     total energy              =     -29.22314453 Ry
     Harris-Foulkes estimate   =     -29.22317686 Ry
     estimated scf accuracy    <       0.00006874 Ry

     iteration #  2     ecut=    12.00 Ry     beta=0.30
     Davidson diagonalization with overlap
     ethr =  3.27E-07,  avg # of iterations =  3.0

     negative rho (up, down):  0.609E-05 0.000E+00

     total cpu time spent up to now is        5.3 secs

     total energy              =     -29.22310662 Ry
     Harris-Foulkes estimate   =     -29.22322280 Ry
     estimated scf accuracy    <       0.00118735 Ry

     iteration #  3     ecut=    12.00 Ry     beta=0.30
     Davidson diagonalization with overlap
     ethr =  3.27E-07,  avg # of iterations =  2.7

     negative rho (up, down):  0.423E-05 0.000E+00

     total cpu time spent up to now is        5.4 secs

     total energy              =     -29.22316652 Ry
     Harris-Foulkes estimate   =     -29.22317566 Ry
     estimated scf accuracy    <       0.00008045 Ry

     iteration #  4     ecut=    12.00 Ry     beta=0.30
     Davidson diagonalization with overlap
     ethr =  3.27E-07,  avg # of iterations =  1.3

     negative rho (up, down):  0.585E-06 0.000E+00

     total cpu time spent up to now is        5.5 secs

     total energy              =     -29.22317128 Ry
     Harris-Foulkes estimate   =     -29.22317099 Ry
     estimated scf accuracy    <       0.00000039 Ry

     iteration #  5     ecut=    12.00 Ry     beta=0.30
     Davidson diagonalization with overlap
     ethr =  1.85E-09,  avg # of iterations =  3.3

     total cpu time spent up to now is        5.6 secs

     total energy              =     -29.22317157 Ry
     Harris-Foulkes estimate   =     -29.22317140 Ry
     estimated scf accuracy    <       0.00000017 Ry

     iteration #  6     ecut=    12.00 Ry     beta=0.30
     Davidson diagonalization with overlap
     ethr =  8.32E-10,  avg # of iterations =  1.3

     total cpu time spent up to now is        5.7 secs

     End of self-consistent calculation

          k = 0.1250 0.1250 0.0000 (   822 PWs)   bands (ev):

    -7.3225  -6.8051  -5.9260  -4.6886  -3.1785  -1.4018   0.6311   1.9144
     4.5808   5.2682   5.7231   6.3708   6.5162   7.0620   7.6017

          k = 0.1250 0.3750 0.0000 (   847 PWs)   bands (ev):

    -4.9985  -4.4897  -3.6272  -2.4133  -0.9374  -0.4995  -0.0321   0.8292
     0.8473   1.9996   2.8224   3.4923   4.0018   5.2167   6.7151

          k = 0.3750 0.3750 0.0000 (   860 PWs)   bands (ev):

    -2.7327  -2.2370  -1.3911  -0.2000   1.0810   1.2416   1.5346   2.3179
     2.4718   2.6990   3.3496   3.4467   3.9319   4.8526   5.0422

     the Fermi energy is     3.4231 ev

!    total energy              =     -29.22317159 Ry
     Harris-Foulkes estimate   =     -29.22317158 Ry
     estimated scf accuracy    <          8.3E-09 Ry

     convergence has been achieved in   6 iterations

     Forces acting on atoms (Ry/au):

     atom    1 type  1   force =     0.00000000    0.00000000   -0.00207121
     atom    2 type  1   force =     0.00000000    0.00000000    0.00185861
     atom    3 type  1   force =     0.00000000    0.00000000    0.00219633
     atom    4 type  1   force =     0.00000000    0.00000000    0.00000000
     atom    5 type  1   force =     0.00000000    0.00000000   -0.00219633
     atom    6 type  1   force =     0.00000000    0.00000000   -0.00185861
     atom    7 type  1   force =     0.00000000    0.00000000    0.00207121

     Total force =     0.005014     Total SCF correction =     0.000074

     Entering Dynamics:    iteration =     7

     <vel(dt)|acc(dt)> =   0.83327035

ATOMIC_POSITIONS (alat)
Al       0.500000000   0.500000000  -2.077682261
Al       0.000000000   0.000000000  -1.381288756
Al       0.500000000   0.500000000  -0.693846973
Al       0.000000000   0.000000000   0.000000000
Al       0.500000000   0.500000000   0.693846973
Al       0.000000000   0.000000000   1.381288756
Al       0.500000000   0.500000000   2.077682261



     Writing output data file pwscf.save

     second order wave-functions extrapolation
     Message from extrapolate_wfcs: 
     the matrix <psi(t-dt)|psi(t)> has  1 small (< 0.1) eigenvalues
     Check: negative starting charge=   -0.000299
     second order charge density extrapolation
     Check: negative starting charge=   -0.000294

     negative rho (up, down):  0.330E-04 0.000E+00

     total cpu time spent up to now is        5.8 secs

     Self-consistent Calculation

     iteration #  1     ecut=    12.00 Ry     beta=0.30
     Davidson diagonalization with overlap
     ethr =  1.00E-06,  avg # of iterations =  8.3

     negative rho (up, down):  0.183E-04 0.000E+00

     total cpu time spent up to now is        5.9 secs

     total energy              =     -29.22215436 Ry
     Harris-Foulkes estimate   =     -29.22300768 Ry
     estimated scf accuracy    <       0.00178001 Ry

     iteration #  2     ecut=    12.00 Ry     beta=0.30
     Davidson diagonalization with overlap
     ethr =  8.48E-06,  avg # of iterations =  3.3

     negative rho (up, down):  0.169E-04 0.000E+00

     total cpu time spent up to now is        6.0 secs

     total energy              =     -29.22060636 Ry
     Harris-Foulkes estimate   =     -29.22500441 Ry
     estimated scf accuracy    <       0.05378886 Ry

     iteration #  3     ecut=    12.00 Ry     beta=0.30
     Davidson diagonalization with overlap
     ethr =  8.48E-06,  avg # of iterations =  3.0

     negative rho (up, down):  0.979E-05 0.000E+00

     total cpu time spent up to now is        6.1 secs

     total energy              =     -29.22283296 Ry
     Harris-Foulkes estimate   =     -29.22286123 Ry
     estimated scf accuracy    <       0.00016259 Ry

     iteration #  4     ecut=    12.00 Ry     beta=0.30
     Davidson diagonalization with overlap
     ethr =  7.74E-07,  avg # of iterations =  2.0

     negative rho (up, down):  0.498E-05 0.000E+00

     total cpu time spent up to now is        6.2 secs

     total energy              =     -29.22284795 Ry
     Harris-Foulkes estimate   =     -29.22285372 Ry
     estimated scf accuracy    <       0.00002768 Ry

     iteration #  5     ecut=    12.00 Ry     beta=0.30
     Davidson diagonalization with overlap
     ethr =  1.32E-07,  avg # of iterations =  1.3

     negative rho (up, down):  0.226E-06 0.000E+00

     total cpu time spent up to now is        6.3 secs

     total energy              =     -29.22285110 Ry
     Harris-Foulkes estimate   =     -29.22285078 Ry
     estimated scf accuracy    <       0.00000307 Ry

     iteration #  6     ecut=    12.00 Ry     beta=0.30
     Davidson diagonalization with overlap
     ethr =  1.46E-08,  avg # of iterations =  2.3

     negative rho (up, down):  0.168E-07 0.000E+00

     total cpu time spent up to now is        6.4 secs

     total energy              =     -29.22285136 Ry
     Harris-Foulkes estimate   =     -29.22285159 Ry
     estimated scf accuracy    <       0.00000086 Ry

     iteration #  7     ecut=    12.00 Ry     beta=0.30
     Davidson diagonalization with overlap
     ethr =  4.11E-09,  avg # of iterations =  2.3

     total cpu time spent up to now is        6.5 secs

     total energy              =     -29.22285150 Ry
     Harris-Foulkes estimate   =     -29.22285167 Ry
     estimated scf accuracy    <       0.00000058 Ry

     iteration #  8     ecut=    12.00 Ry     beta=0.30
     Davidson diagonalization with overlap
     ethr =  2.74E-09,  avg # of iterations =  2.0

     total cpu time spent up to now is        6.6 secs

     total energy              =     -29.22285161 Ry
     Harris-Foulkes estimate   =     -29.22285163 Ry
     estimated scf accuracy    <       0.00000011 Ry

     iteration #  9     ecut=    12.00 Ry     beta=0.30
     Davidson diagonalization with overlap
     ethr =  5.18E-10,  avg # of iterations =  1.3

     total cpu time spent up to now is        6.6 secs

     End of self-consistent calculation

          k = 0.1250 0.1250 0.0000 (   822 PWs)   bands (ev):

    -7.2832  -6.7288  -5.8307  -4.6394  -3.1823  -1.4237   0.5941   1.8748
     4.5354   5.3091   5.8065   6.3379   6.6273   7.0804   7.5895

          k = 0.1250 0.3750 0.0000 (   847 PWs)   bands (ev):

    -4.9593  -4.4133  -3.5314  -2.3625  -0.9387  -0.4591   0.0455   0.8272
     0.9264   2.0546   2.7896   3.4900   3.9696   5.1911   6.6731

          k = 0.3750 0.3750 0.0000 (   860 PWs)   bands (ev):

    -2.6933  -2.1600  -1.2933  -0.1471   1.1212   1.2441   1.6153   2.4250
     2.5133   2.7338   3.3711   3.5089   4.0179   4.8508   5.0101

     the Fermi energy is     3.4369 ev

!    total energy              =     -29.22285161 Ry
     Harris-Foulkes estimate   =     -29.22285161 Ry
     estimated scf accuracy    <          5.6E-09 Ry

     convergence has been achieved in   9 iterations

     Forces acting on atoms (Ry/au):

     atom    1 type  1   force =     0.00000000    0.00000000    0.00493523
     atom    2 type  1   force =     0.00000000    0.00000000   -0.00485574
     atom    3 type  1   force =     0.00000000    0.00000000    0.00285843
     atom    4 type  1   force =     0.00000000    0.00000000    0.00000000
     atom    5 type  1   force =     0.00000000    0.00000000   -0.00285843
     atom    6 type  1   force =     0.00000000    0.00000000    0.00485574
     atom    7 type  1   force =     0.00000000    0.00000000   -0.00493523

     Total force =     0.010593     Total SCF correction =     0.000105

     Entering Dynamics:    iteration =     8

     <vel(dt)|acc(dt)> =  -0.98491043

ATOMIC_POSITIONS (alat)
Al       0.500000000   0.500000000  -2.065522351
Al       0.000000000   0.000000000  -1.381746062
Al       0.500000000   0.500000000  -0.691735473
Al       0.000000000   0.000000000   0.000000000
Al       0.500000000   0.500000000   0.691735473
Al       0.000000000   0.000000000   1.381746062
Al       0.500000000   0.500000000   2.065522351



     Writing output data file pwscf.save

     second order wave-functions extrapolation
     Check: negative starting charge=   -0.000294
     second order charge density extrapolation
     Check: negative starting charge=   -0.000295

     negative rho (up, down):  0.175E-05 0.000E+00

     total cpu time spent up to now is        6.7 secs

     Self-consistent Calculation

     iteration #  1     ecut=    12.00 Ry     beta=0.30
     Davidson diagonalization with overlap
     ethr =  1.00E-06,  avg # of iterations =  3.0

     negative rho (up, down):  0.278E-06 0.000E+00

     total cpu time spent up to now is        6.8 secs

     total energy              =     -29.22324652 Ry
     Harris-Foulkes estimate   =     -29.22326848 Ry
     estimated scf accuracy    <       0.00004739 Ry

     iteration #  2     ecut=    12.00 Ry     beta=0.30
     Davidson diagonalization with overlap
     ethr =  2.26E-07,  avg # of iterations =  3.0

     negative rho (up, down):  0.196E-06 0.000E+00

     total cpu time spent up to now is        6.9 secs

     total energy              =     -29.22323166 Ry
     Harris-Foulkes estimate   =     -29.22328141 Ry
     estimated scf accuracy    <       0.00040547 Ry

     iteration #  3     ecut=    12.00 Ry     beta=0.30
     Davidson diagonalization with overlap
     ethr =  2.26E-07,  avg # of iterations =  2.7

     negative rho (up, down):  0.663E-07 0.000E+00

     total cpu time spent up to now is        7.0 secs

     total energy              =     -29.22325626 Ry
     Harris-Foulkes estimate   =     -29.22326821 Ry
     estimated scf accuracy    <       0.00012674 Ry

     iteration #  4     ecut=    12.00 Ry     beta=0.30
     Davidson diagonalization with overlap
     ethr =  2.26E-07,  avg # of iterations =  2.0

     negative rho (up, down):  0.189E-07 0.000E+00

     total cpu time spent up to now is        7.1 secs

     total energy              =     -29.22326228 Ry
     Harris-Foulkes estimate   =     -29.22326232 Ry
     estimated scf accuracy    <       0.00000057 Ry

     iteration #  5     ecut=    12.00 Ry     beta=0.30
     Davidson diagonalization with overlap
     ethr =  2.70E-09,  avg # of iterations =  2.3

     total cpu time spent up to now is        7.2 secs

     End of self-consistent calculation

          k = 0.1250 0.1250 0.0000 (   822 PWs)   bands (ev):

    -7.3166  -6.7760  -5.8988  -4.6747  -3.1780  -1.4102   0.6193   1.9018
     4.5695   5.2743   5.7554   6.3639   6.5482   7.0615   7.6023

          k = 0.1250 0.3750 0.0000 (   847 PWs)   bands (ev):

    -4.9927  -4.4606  -3.5998  -2.3990  -0.9368  -0.4928  -0.0025   0.8395
     0.8571   2.0154   2.8124   3.4929   3.9911   5.2066   6.7050

          k = 0.3750 0.3750 0.0000 (   860 PWs)   bands (ev):

    -2.7269  -2.2076  -1.3631  -0.1851   1.0870   1.2435   1.5658   2.3487
     2.4788   2.7124   3.3571   3.4644   3.9564   4.8546   5.0324

     the Fermi energy is     3.4278 ev

!    total energy              =     -29.22326241 Ry
     Harris-Foulkes estimate   =     -29.22326236 Ry
     estimated scf accuracy    <       0.00000008 Ry

     convergence has been achieved in   5 iterations

     Forces acting on atoms (Ry/au):

     atom    1 type  1   force =     0.00000000    0.00000000    0.00043176
     atom    2 type  1   force =     0.00000000    0.00000000   -0.00035483
     atom    3 type  1   force =     0.00000000    0.00000000    0.00141316
     atom    4 type  1   force =     0.00000000    0.00000000    0.00000000
     atom    5 type  1   force =     0.00000000    0.00000000   -0.00141316
     atom    6 type  1   force =     0.00000000    0.00000000    0.00035483
     atom    7 type  1   force =     0.00000000    0.00000000   -0.00043176

     Total force =     0.002149     Total SCF correction =     0.000097

     Entering Dynamics:    iteration =     9

     <vel(dt)|acc(dt)> =   0.96655357

ATOMIC_POSITIONS (alat)
Al       0.500000000   0.500000000  -2.052123547
Al       0.000000000   0.000000000  -1.378846310
Al       0.500000000   0.500000000  -0.688127709
Al       0.000000000   0.000000000   0.000000000
Al       0.500000000   0.500000000   0.688127709
Al       0.000000000   0.000000000   1.378846310
Al       0.500000000   0.500000000   2.052123547



     Writing output data file pwscf.save

     second order wave-functions extrapolation
     Check: negative starting charge=   -0.000295
     second order charge density extrapolation
     Check: negative starting charge=   -0.000290

     negative rho (up, down):  0.265E-04 0.000E+00

     total cpu time spent up to now is        7.3 secs

     Self-consistent Calculation

     iteration #  1     ecut=    12.00 Ry     beta=0.30
     Davidson diagonalization with overlap
     ethr =  1.00E-06,  avg # of iterations =  3.3

     negative rho (up, down):  0.120E-04 0.000E+00

     total cpu time spent up to now is        7.4 secs

     total energy              =     -29.22304068 Ry
     Harris-Foulkes estimate   =     -29.22310737 Ry
     estimated scf accuracy    <       0.00014316 Ry

     iteration #  2     ecut=    12.00 Ry     beta=0.30
     Davidson diagonalization with overlap
     ethr =  6.82E-07,  avg # of iterations =  3.7

     negative rho (up, down):  0.106E-04 0.000E+00

     total cpu time spent up to now is        7.5 secs

     total energy              =     -29.22295996 Ry
     Harris-Foulkes estimate   =     -29.22319800 Ry
     estimated scf accuracy    <       0.00250796 Ry

     iteration #  3     ecut=    12.00 Ry     beta=0.30
     Davidson diagonalization with overlap
     ethr =  6.82E-07,  avg # of iterations =  3.0

     negative rho (up, down):  0.666E-05 0.000E+00

     total cpu time spent up to now is        7.6 secs

     total energy              =     -29.22308377 Ry
     Harris-Foulkes estimate   =     -29.22309705 Ry
     estimated scf accuracy    <       0.00010661 Ry

     iteration #  4     ecut=    12.00 Ry     beta=0.30
     Davidson diagonalization with overlap
     ethr =  5.08E-07,  avg # of iterations =  1.3

     negative rho (up, down):  0.247E-05 0.000E+00

     total cpu time spent up to now is        7.7 secs

     total energy              =     -29.22309083 Ry
     Harris-Foulkes estimate   =     -29.22309080 Ry
     estimated scf accuracy    <       0.00000154 Ry

     iteration #  5     ecut=    12.00 Ry     beta=0.30
     Davidson diagonalization with overlap
     ethr =  7.35E-09,  avg # of iterations =  2.3

     negative rho (up, down):  0.389E-07 0.000E+00

     total cpu time spent up to now is        7.8 secs

     total energy              =     -29.22309140 Ry
     Harris-Foulkes estimate   =     -29.22309115 Ry
     estimated scf accuracy    <       0.00000031 Ry

     iteration #  6     ecut=    12.00 Ry     beta=0.30
     Davidson diagonalization with overlap
     ethr =  1.47E-09,  avg # of iterations =  2.3

     total cpu time spent up to now is        7.9 secs

     total energy              =     -29.22309145 Ry
     Harris-Foulkes estimate   =     -29.22309146 Ry
     estimated scf accuracy    <       0.00000019 Ry

     iteration #  7     ecut=    12.00 Ry     beta=0.30
     Davidson diagonalization with overlap
     ethr =  8.81E-10,  avg # of iterations =  1.7

     total cpu time spent up to now is        8.0 secs

     End of self-consistent calculation

          k = 0.1250 0.1250 0.0000 (   822 PWs)   bands (ev):

    -7.3648  -6.8287  -5.9636  -4.7087  -3.1773  -1.3979   0.6460   1.9316
     4.6105   5.2235   5.6977   6.3883   6.4725   7.0296   7.6181

          k = 0.1250 0.3750 0.0000 (   847 PWs)   bands (ev):

    -5.0408  -4.5135  -3.6651  -2.4343  -0.9394  -0.5409  -0.0565   0.7910
     0.8506   1.9778   2.8361   3.4926   4.0154   5.2196   6.7427

          k = 0.3750 0.3750 0.0000 (   860 PWs)   bands (ev):

    -2.7753  -2.2610  -1.4298  -0.2220   1.0374   1.2382   1.5097   2.2757
     2.4294   2.6829   3.3443   3.4216   3.8976   4.8532   5.0566

     the Fermi energy is     3.4176 ev

!    total energy              =     -29.22309148 Ry
     Harris-Foulkes estimate   =     -29.22309147 Ry
     estimated scf accuracy    <       0.00000002 Ry

     convergence has been achieved in   7 iterations

     Forces acting on atoms (Ry/au):

     atom    1 type  1   force =     0.00000000    0.00000000   -0.00383566
     atom    2 type  1   force =     0.00000000    0.00000000    0.00308738
     atom    3 type  1   force =     0.00000000    0.00000000   -0.00006020
     atom    4 type  1   force =     0.00000000    0.00000000    0.00000000
     atom    5 type  1   force =     0.00000000    0.00000000    0.00006020
     atom    6 type  1   force =     0.00000000    0.00000000   -0.00308738
     atom    7 type  1   force =     0.00000000    0.00000000    0.00383566

     Total force =     0.006964     Total SCF correction =     0.000180

     Entering Dynamics:    iteration =    10

     <vel(dt)|acc(dt)> =  -0.98873322

ATOMIC_POSITIONS (alat)
Al       0.500000000   0.500000000  -2.063485194
Al       0.000000000   0.000000000  -1.380166679
Al       0.500000000   0.500000000  -0.689754647
Al       0.000000000   0.000000000   0.000000000
Al       0.500000000   0.500000000   0.689754647
Al       0.000000000   0.000000000   1.380166679
Al       0.500000000   0.500000000   2.063485194



     Writing output data file pwscf.save

     second order wave-functions extrapolation
     Check: negative starting charge=   -0.000290
     second order charge density extrapolation
     Check: negative starting charge=   -0.000294

     negative rho (up, down):  0.389E-05 0.000E+00

     total cpu time spent up to now is        8.0 secs

     Self-consistent Calculation

     iteration #  1     ecut=    12.00 Ry     beta=0.30
     Davidson diagonalization with overlap
     ethr =  1.00E-06,  avg # of iterations =  2.0

     Threshold (ethr) on eigenvalues was too large:
     Diagonalizing with lowered threshold

     Davidson diagonalization with overlap
     ethr =  7.01E-08,  avg # of iterations =  1.7

     negative rho (up, down):  0.134E-05 0.000E+00

     total cpu time spent up to now is        8.2 secs

     total energy              =     -29.22327961 Ry
     Harris-Foulkes estimate   =     -29.22328707 Ry
     estimated scf accuracy    <       0.00001642 Ry

     iteration #  2     ecut=    12.00 Ry     beta=0.30
     Davidson diagonalization with overlap
     ethr =  7.82E-08,  avg # of iterations =  2.7

     negative rho (up, down):  0.958E-06 0.000E+00

     total cpu time spent up to now is        8.3 secs

     total energy              =     -29.22327577 Ry
     Harris-Foulkes estimate   =     -29.22328997 Ry
     estimated scf accuracy    <       0.00010185 Ry

     iteration #  3     ecut=    12.00 Ry     beta=0.30
     Davidson diagonalization with overlap
     ethr =  7.82E-08,  avg # of iterations =  2.7

     negative rho (up, down):  0.406E-06 0.000E+00

     total cpu time spent up to now is        8.4 secs

     total energy              =     -29.22328212 Ry
     Harris-Foulkes estimate   =     -29.22328737 Ry
     estimated scf accuracy    <       0.00005787 Ry

     iteration #  4     ecut=    12.00 Ry     beta=0.30
     Davidson diagonalization with overlap
     ethr =  7.82E-08,  avg # of iterations =  2.0

     negative rho (up, down):  0.267E-07 0.000E+00

     total cpu time spent up to now is        8.5 secs

     total energy              =     -29.22328483 Ry
     Harris-Foulkes estimate   =     -29.22328477 Ry
     estimated scf accuracy    <       0.00000018 Ry

     iteration #  5     ecut=    12.00 Ry     beta=0.30
     Davidson diagonalization with overlap
     ethr =  8.41E-10,  avg # of iterations =  2.7

     total cpu time spent up to now is        8.6 secs

     End of self-consistent calculation

          k = 0.1250 0.1250 0.0000 (   822 PWs)   bands (ev):

    -7.3296  -6.7797  -5.9076  -4.6796  -3.1776  -1.4100   0.6226   1.9057
     4.5776   5.2606   5.7517   6.3691   6.5379   7.0508   7.6083

          k = 0.1250 0.3750 0.0000 (   847 PWs)   bands (ev):

    -5.0056  -4.4644  -3.6087  -2.4041  -0.9373  -0.5054  -0.0063   0.8396
     0.8480   2.0102   2.8156   3.4930   3.9941   5.2062   6.7126

          k = 0.3750 0.3750 0.0000 (   860 PWs)   bands (ev):

    -2.7399  -2.2114  -1.3722  -0.1904   1.0736   1.2427   1.5620   2.3388
     2.4660   2.7093   3.3560   3.4584   3.9483   4.8552   5.0358

     the Fermi energy is     3.4267 ev

!    total energy              =     -29.22328494 Ry
     Harris-Foulkes estimate   =     -29.22328486 Ry
     estimated scf accuracy    <       0.00000002 Ry

     convergence has been achieved in   5 iterations

     Forces acting on atoms (Ry/au):

     atom    1 type  1   force =     0.00000000    0.00000000    0.00017597
     atom    2 type  1   force =     0.00000000    0.00000000   -0.00019523
     atom    3 type  1   force =     0.00000000    0.00000000    0.00053699
     atom    4 type  1   force =     0.00000000    0.00000000    0.00000000
     atom    5 type  1   force =     0.00000000    0.00000000   -0.00053699
     atom    6 type  1   force =     0.00000000    0.00000000    0.00019523
     atom    7 type  1   force =     0.00000000    0.00000000   -0.00017597

     Total force =     0.000845     Total SCF correction =     0.000059

     Entering Dynamics:    iteration =    11

     <vel(dt)|acc(dt)> =  -0.98738001

ATOMIC_POSITIONS (alat)
Al       0.500000000   0.500000000  -2.062839199
Al       0.000000000   0.000000000  -1.380128737
Al       0.500000000   0.500000000  -0.689561347
Al       0.000000000   0.000000000   0.000000000
Al       0.500000000   0.500000000   0.689561347
Al       0.000000000   0.000000000   1.380128737
Al       0.500000000   0.500000000   2.062839199



     Writing output data file pwscf.save

     second order wave-functions extrapolation
     Check: negative starting charge=   -0.000294
     second order charge density extrapolation
     Check: negative starting charge=   -0.000294

     total cpu time spent up to now is        8.7 secs

     Self-consistent Calculation

     iteration #  1     ecut=    12.00 Ry     beta=0.30
     Davidson diagonalization with overlap
     ethr =  1.00E-06,  avg # of iterations =  2.0

     Threshold (ethr) on eigenvalues was too large:
     Diagonalizing with lowered threshold

     Davidson diagonalization with overlap
     ethr =  1.84E-09,  avg # of iterations =  2.0

     total cpu time spent up to now is        8.8 secs

     total energy              =     -29.22328613 Ry
     Harris-Foulkes estimate   =     -29.22328634 Ry
     estimated scf accuracy    <       0.00000043 Ry

     iteration #  2     ecut=    12.00 Ry     beta=0.30
     Davidson diagonalization with overlap
     ethr =  2.05E-09,  avg # of iterations =  3.0

     total cpu time spent up to now is        8.9 secs

     total energy              =     -29.22328575 Ry
     Harris-Foulkes estimate   =     -29.22328687 Ry
     estimated scf accuracy    <       0.00001350 Ry

     iteration #  3     ecut=    12.00 Ry     beta=0.30
     Davidson diagonalization with overlap
     ethr =  2.05E-09,  avg # of iterations =  2.7

     total cpu time spent up to now is        9.0 secs

     End of self-consistent calculation

          k = 0.1250 0.1250 0.0000 (   822 PWs)   bands (ev):

    -7.3320  -6.7823  -5.9114  -4.6816  -3.1775  -1.4096   0.6238   1.9070
     4.5793   5.2581   5.7488   6.3703   6.5335   7.0492   7.6081

          k = 0.1250 0.3750 0.0000 (   847 PWs)   bands (ev):

    -5.0080  -4.4670  -3.6126  -2.4062  -0.9374  -0.5077  -0.0090   0.8400
     0.8442   2.0080   2.8167   3.4930   3.9951   5.2068   6.7142

          k = 0.3750 0.3750 0.0000 (   860 PWs)   bands (ev):

    -2.7423  -2.2140  -1.3761  -0.1926   1.0712   1.2425   1.5592   2.3346
     2.4635   2.7079   3.3552   3.4559   3.9448   4.8553   5.0369

     the Fermi energy is     3.4260 ev

!    total energy              =     -29.22328627 Ry
     Harris-Foulkes estimate   =     -29.22328631 Ry
     estimated scf accuracy    <       0.00000004 Ry

     convergence has been achieved in   3 iterations

     Forces acting on atoms (Ry/au):

     atom    1 type  1   force =     0.00000000    0.00000000   -0.00004768
     atom    2 type  1   force =     0.00000000    0.00000000    0.00003912
     atom    3 type  1   force =     0.00000000    0.00000000    0.00041843
     atom    4 type  1   force =     0.00000000    0.00000000    0.00000000
     atom    5 type  1   force =     0.00000000    0.00000000   -0.00041843
     atom    6 type  1   force =     0.00000000    0.00000000   -0.00003912
     atom    7 type  1   force =     0.00000000    0.00000000    0.00004768

     Total force =     0.000598     Total SCF correction =     0.000340
     SCF correction compared to forces is large: reduce conv_thr to get better values

     Damped Dynamics: convergence achieved in  12 steps

     End of damped dynamics calculation

     Final energy =     -29.2232862734 Ry

Begin final coordinates
     new unit-cell volume =   1193.24211 a.u.^3 (   176.82024 Ang^3 )

CELL_PARAMETERS (alat=  5.30330000)
   1.000000000   0.000000000   0.000000000
   0.000000000   1.000000000   0.000000000
   0.000000000   0.000000000   8.000000000

ATOMIC_POSITIONS (alat)
Al       0.500000000   0.500000000  -2.062839199
Al       0.000000000   0.000000000  -1.380128737
Al       0.500000000   0.500000000  -0.689561347
Al       0.000000000   0.000000000   0.000000000
Al       0.500000000   0.500000000   0.689561347
Al       0.000000000   0.000000000   1.380128737
Al       0.500000000   0.500000000   2.062839199
End final coordinates



     Entering Dynamics:    iteration =    12

     <vel(dt)|acc(dt)> =   0.92259565

ATOMIC_POSITIONS (alat)
Al       0.500000000   0.500000000  -2.062079273
Al       0.000000000   0.000000000  -1.379793409
Al       0.500000000   0.500000000  -0.689092900
Al       0.000000000   0.000000000   0.000000000
Al       0.500000000   0.500000000   0.689092900
Al       0.000000000   0.000000000   1.379793409
Al       0.500000000   0.500000000   2.062079273



     Writing output data file pwscf.save

     init_run     :      0.08s CPU      0.08s WALL (       1 calls)
     electrons    :      8.12s CPU      8.04s WALL (      12 calls)
     update_pot   :      0.40s CPU      0.42s WALL (      11 calls)
     forces       :      0.24s CPU      0.24s WALL (      12 calls)

     Called by init_run:
     wfcinit      :      0.06s CPU      0.06s WALL (       1 calls)
     potinit      :      0.00s CPU      0.00s WALL (       1 calls)

     Called by electrons:
     c_bands      :      6.49s CPU      6.36s WALL (      84 calls)
     sum_band     :      1.13s CPU      1.15s WALL (      84 calls)
     v_of_rho     :      0.19s CPU      0.19s WALL (      92 calls)
     mix_rho      :      0.07s CPU      0.07s WALL (      84 calls)

     Called by c_bands:
     init_us_2    :      0.14s CPU      0.14s WALL (     543 calls)
     cegterg      :      6.03s CPU      5.88s WALL (     252 calls)

     Called by *egterg:
     h_psi        :      4.56s CPU      4.53s WALL (     922 calls)
     g_psi        :      0.07s CPU      0.07s WALL (     667 calls)
     cdiaghg      :      0.53s CPU      0.54s WALL (     874 calls)

     Called by h_psi:
     add_vuspsi   :      0.25s CPU      0.20s WALL (     922 calls)

     General routines
     calbec       :      0.21s CPU      0.21s WALL (     988 calls)
     fft          :      0.10s CPU      0.10s WALL (     399 calls)
     fftw         :      4.29s CPU      4.31s WALL (   22848 calls)
     davcio       :      0.52s CPU      0.56s WALL (     978 calls)


     PWSCF        :     9.08s CPU         9.04s WALL


   This run was terminated on:  17: 0:49  25Apr2013            

=------------------------------------------------------------------------------=
   JOB DONE.
=------------------------------------------------------------------------------=
