
     Program PWSCF v.5.2.0 (svn rev. 11612) starts on 28Jul2015 at 14:45:13 

     This program is part of the open-source Quantum ESPRESSO suite
     for quantum simulation of materials; please cite
         "P. Giannozzi et al., J. Phys.:Condens. Matter 21 395502 (2009);
          URL http://www.quantum-espresso.org", 
     in publications or presentations arising from this work. More details at
     http://www.quantum-espresso.org/quote

     Parallel version (MPI), running on     6 processors
     R & G space division:  proc/nbgrp/npool/nimage =       6
     Reading input from aiida.in

     Current dimensions of program PWSCF are:
     Max number of different atomic species (ntypx) = 10
     Max number of k-points (npk) =  40000
     Max angular momentum in pseudopotentials (lmaxx) =  3

     Subspace diagonalization in iterative solution of the eigenvalue problem:
     a serial algorithm will be used

 
     Parallelization info
     --------------------
     sticks:   dense  smooth     PW     G-vecs:    dense   smooth      PW
     Min         242     120     36                 7050     2491     422
     Max         243     121     37                 7053     2497     425
     Sum        1457     725    221                42307    14963    2541
 


     bravais-lattice index     =            0
     lattice parameter (alat)  =       7.5589  a.u.
     unit-cell volume          =     437.2921 (a.u.)^3
     number of atoms/cell      =            5
     number of atomic types    =            3
     number of electrons       =        40.00
     number of Kohn-Sham states=           20
     kinetic-energy cutoff     =      40.0000  Ry
     charge density cutoff     =     320.0000  Ry
     convergence threshold     =      1.0E-10
     mixing beta               =       0.7000
     number of iterations used =            8  plain     mixing
     Exchange-correlation      = SLA  PW   PBE  PBE ( 1  4  3  4 0 0)

     celldm(1)=   7.558905  celldm(2)=   0.000000  celldm(3)=   0.000000
     celldm(4)=   0.000000  celldm(5)=   0.000000  celldm(6)=   0.000000

     crystal axes: (cart. coord. in units of alat)
               a(1) = (   1.000000   0.000000   0.000000 )  
               a(2) = (   0.000000   1.000000   0.000000 )  
               a(3) = (   0.000000   0.000000   1.012500 )  

     reciprocal axes: (cart. coord. in units 2 pi/alat)
               b(1) = (  1.000000  0.000000  0.000000 )  
               b(2) = (  0.000000  1.000000  0.000000 )  
               b(3) = (  0.000000  0.000000  0.987654 )  


     PseudoPot. # 1 for Ba read from file:
     ./pseudo/ba_pbe_v1.uspp.F.UPF
     MD5 check sum: 3380f63c22b3abf76d74aa74136bb909
     Pseudo is Ultrasoft + core correction, Zval = 10.0
     Generated by new atomic code, or converted to UPF format
     Using radial grid of  907 points,  7 beta functions with: 
                l(1) =   0
                l(2) =   0
                l(3) =   1
                l(4) =   1
                l(5) =   2
                l(6) =   2
                l(7) =   3
     Q(r) pseudized with  6 coefficients,  rinner =    1.700   1.700   1.700
                                                       1.700   1.700   1.700
                                                       1.700

     PseudoPot. # 2 for O  read from file:
     ./pseudo/o_pbe_v1.2.uspp.F.UPF
     MD5 check sum: 734c27235a0248c51dbae37a1fbe46ec
     Pseudo is Ultrasoft + core correction, Zval =  6.0
     Generated by new atomic code, or converted to UPF format
     Using radial grid of  737 points,  5 beta functions with: 
                l(1) =   0
                l(2) =   0
                l(3) =   1
                l(4) =   1
                l(5) =   2
     Q(r) pseudized with  8 coefficients,  rinner =    0.900   0.900   0.900
                                                       0.900   0.900

     PseudoPot. # 3 for Ti read from file:
     ./pseudo/ti_pbe_v1.uspp.F.UPF
     MD5 check sum: bcc8f6961b3b91f0cac3ca967d22d0fb
     Pseudo is Ultrasoft + core correction, Zval = 12.0
     Generated by new atomic code, or converted to UPF format
     Using radial grid of  851 points,  6 beta functions with: 
                l(1) =   0
                l(2) =   0
                l(3) =   1
                l(4) =   1
                l(5) =   2
                l(6) =   2
     Q(r) pseudized with  6 coefficients,  rinner =    1.000   1.000   1.000
                                                       1.000   1.000

     atomic species   valence    mass     pseudopotential
        Ba            10.00   137.32700     Ba( 1.00)
        O              6.00    15.99940     O ( 1.00)
        Ti            12.00    47.86700     Ti( 1.00)

     16 Sym. Ops., with inversion, found


                                    s                        frac. trans.

      isym =  1     identity                                     

 cryst.   s( 1) = (     1          0          0      )
                  (     0          1          0      )
                  (     0          0          1      )

 cart.    s( 1) = (  1.0000000  0.0000000  0.0000000 )
                  (  0.0000000  1.0000000  0.0000000 )
                  (  0.0000000  0.0000000  1.0000000 )


      isym =  2     180 deg rotation - cart. axis [0,0,1]        

 cryst.   s( 2) = (    -1          0          0      )
                  (     0         -1          0      )
                  (     0          0          1      )

 cart.    s( 2) = ( -1.0000000  0.0000000  0.0000000 )
                  (  0.0000000 -1.0000000  0.0000000 )
                  (  0.0000000  0.0000000  1.0000000 )


      isym =  3     180 deg rotation - cart. axis [0,1,0]        

 cryst.   s( 3) = (    -1          0          0      )
                  (     0          1          0      )
                  (     0          0         -1      )

 cart.    s( 3) = ( -1.0000000  0.0000000  0.0000000 )
                  (  0.0000000  1.0000000  0.0000000 )
                  (  0.0000000  0.0000000 -1.0000000 )


      isym =  4     180 deg rotation - cart. axis [1,0,0]        

 cryst.   s( 4) = (     1          0          0      )
                  (     0         -1          0      )
                  (     0          0         -1      )

 cart.    s( 4) = (  1.0000000  0.0000000  0.0000000 )
                  (  0.0000000 -1.0000000  0.0000000 )
                  (  0.0000000  0.0000000 -1.0000000 )


      isym =  5     180 deg rotation - cart. axis [1,1,0]        

 cryst.   s( 5) = (     0          1          0      )
                  (     1          0          0      )
                  (     0          0         -1      )

 cart.    s( 5) = (  0.0000000  1.0000000  0.0000000 )
                  (  1.0000000  0.0000000  0.0000000 )
                  (  0.0000000  0.0000000 -1.0000000 )


      isym =  6     180 deg rotation - cart. axis [1,-1,0]       

 cryst.   s( 6) = (     0         -1          0      )
                  (    -1          0          0      )
                  (     0          0         -1      )

 cart.    s( 6) = (  0.0000000 -1.0000000  0.0000000 )
                  ( -1.0000000  0.0000000  0.0000000 )
                  (  0.0000000  0.0000000 -1.0000000 )


      isym =  7      90 deg rotation - cart. axis [0,0,-1]       

 cryst.   s( 7) = (     0         -1          0      )
                  (     1          0          0      )
                  (     0          0          1      )

 cart.    s( 7) = (  0.0000000  1.0000000  0.0000000 )
                  ( -1.0000000  0.0000000  0.0000000 )
                  (  0.0000000  0.0000000  1.0000000 )


      isym =  8      90 deg rotation - cart. axis [0,0,1]        

 cryst.   s( 8) = (     0          1          0      )
                  (    -1          0          0      )
                  (     0          0          1      )

 cart.    s( 8) = (  0.0000000 -1.0000000  0.0000000 )
                  (  1.0000000  0.0000000  0.0000000 )
                  (  0.0000000  0.0000000  1.0000000 )


      isym =  9     inversion                                    

 cryst.   s( 9) = (    -1          0          0      )
                  (     0         -1          0      )
                  (     0          0         -1      )

 cart.    s( 9) = ( -1.0000000  0.0000000  0.0000000 )
                  (  0.0000000 -1.0000000  0.0000000 )
                  (  0.0000000  0.0000000 -1.0000000 )


      isym = 10     inv. 180 deg rotation - cart. axis [0,0,1]   

 cryst.   s(10) = (     1          0          0      )
                  (     0          1          0      )
                  (     0          0         -1      )

 cart.    s(10) = (  1.0000000  0.0000000  0.0000000 )
                  (  0.0000000  1.0000000  0.0000000 )
                  (  0.0000000  0.0000000 -1.0000000 )


      isym = 11     inv. 180 deg rotation - cart. axis [0,1,0]   

 cryst.   s(11) = (     1          0          0      )
                  (     0         -1          0      )
                  (     0          0          1      )

 cart.    s(11) = (  1.0000000  0.0000000  0.0000000 )
                  (  0.0000000 -1.0000000  0.0000000 )
                  (  0.0000000  0.0000000  1.0000000 )


      isym = 12     inv. 180 deg rotation - cart. axis [1,0,0]   

 cryst.   s(12) = (    -1          0          0      )
                  (     0          1          0      )
                  (     0          0          1      )

 cart.    s(12) = ( -1.0000000  0.0000000  0.0000000 )
                  (  0.0000000  1.0000000  0.0000000 )
                  (  0.0000000  0.0000000  1.0000000 )


      isym = 13     inv. 180 deg rotation - cart. axis [1,1,0]   

 cryst.   s(13) = (     0         -1          0      )
                  (    -1          0          0      )
                  (     0          0          1      )

 cart.    s(13) = (  0.0000000 -1.0000000  0.0000000 )
                  ( -1.0000000  0.0000000  0.0000000 )
                  (  0.0000000  0.0000000  1.0000000 )


      isym = 14     inv. 180 deg rotation - cart. axis [1,-1,0]  

 cryst.   s(14) = (     0          1          0      )
                  (     1          0          0      )
                  (     0          0          1      )

 cart.    s(14) = (  0.0000000  1.0000000  0.0000000 )
                  (  1.0000000  0.0000000  0.0000000 )
                  (  0.0000000  0.0000000  1.0000000 )


      isym = 15     inv.  90 deg rotation - cart. axis [0,0,-1]  

 cryst.   s(15) = (     0          1          0      )
                  (    -1          0          0      )
                  (     0          0         -1      )

 cart.    s(15) = (  0.0000000 -1.0000000  0.0000000 )
                  (  1.0000000  0.0000000  0.0000000 )
                  (  0.0000000  0.0000000 -1.0000000 )


      isym = 16     inv.  90 deg rotation - cart. axis [0,0,1]   

 cryst.   s(16) = (     0         -1          0      )
                  (     1          0          0      )
                  (     0          0         -1      )

 cart.    s(16) = (  0.0000000  1.0000000  0.0000000 )
                  ( -1.0000000  0.0000000  0.0000000 )
                  (  0.0000000  0.0000000 -1.0000000 )


     point group D_4h(4/mmm)
     there are 10 classes
     the character table:

       E     2C4   C2    2C2'  2C2'' i     2S4   s_h   2s_v  2s_d 
A_1g   1.00  1.00  1.00  1.00  1.00  1.00  1.00  1.00  1.00  1.00
A_2g   1.00  1.00  1.00 -1.00 -1.00  1.00  1.00  1.00 -1.00 -1.00
B_1g   1.00 -1.00  1.00  1.00 -1.00  1.00 -1.00  1.00  1.00 -1.00
B_2g   1.00 -1.00  1.00 -1.00  1.00  1.00 -1.00  1.00 -1.00  1.00
E_g    2.00  0.00 -2.00  0.00  0.00  2.00  0.00 -2.00  0.00  0.00
A_1u   1.00  1.00  1.00  1.00  1.00 -1.00 -1.00 -1.00 -1.00 -1.00
A_2u   1.00  1.00  1.00 -1.00 -1.00 -1.00 -1.00 -1.00  1.00  1.00
B_1u   1.00 -1.00  1.00  1.00 -1.00 -1.00  1.00 -1.00 -1.00  1.00
B_2u   1.00 -1.00  1.00 -1.00  1.00 -1.00  1.00 -1.00  1.00 -1.00
E_u    2.00  0.00 -2.00  0.00  0.00 -2.00  0.00  2.00  0.00  0.00

     the symmetry operations in each class and the name of the first element:

     E        1
          identity                                               
     2C4      7    8
           90 deg rotation - cart. axis [0,0,-1]                 
     C2       2
          180 deg rotation - cart. axis [0,0,1]                  
     2C2'     3    4
          180 deg rotation - cart. axis [0,1,0]                  
     2C2''    5    6
          180 deg rotation - cart. axis [1,1,0]                  
     i        9
          inversion                                              
     2S4     15   16
          inv.  90 deg rotation - cart. axis [0,0,-1]            
     s_h     10
          inv. 180 deg rotation - cart. axis [0,0,1]             
     2s_v    11   12
          inv. 180 deg rotation - cart. axis [0,1,0]             
     2s_d    13   14
          inv. 180 deg rotation - cart. axis [1,1,0]             

   Cartesian axes

     site n.     atom                  positions (alat units)
         1           Ba  tau(   1) = (   0.0000000   0.0000000   0.0000000  )
         2           Ti  tau(   2) = (   0.5000000   0.5000000   0.5062498  )
         3           O   tau(   3) = (   0.5000000   0.5000000   0.0000003  )
         4           O   tau(   4) = (   0.5000000   0.0000000   0.5062501  )
         5           O   tau(   5) = (   0.0000000   0.5000000   0.5062501  )

   Crystallographic axes

     site n.     atom                  positions (cryst. coord.)
         1           Ba  tau(   1) = (  0.0000000  0.0000000  0.0000000  )
         2           Ti  tau(   2) = (  0.5000000  0.5000000  0.4999998  )
         3           O   tau(   3) = (  0.5000000  0.5000000  0.0000003  )
         4           O   tau(   4) = (  0.5000000  0.0000000  0.5000001  )
         5           O   tau(   5) = (  0.0000000  0.5000000  0.5000001  )

     number of k points=     6
                       cart. coord. in units 2pi/alat
        k(    1) = (   0.0000000   0.0000000   0.0000000), wk =   0.2500000
        k(    2) = (   0.0000000   0.0000000  -0.4938272), wk =   0.2500000
        k(    3) = (   0.0000000  -0.5000000   0.0000000), wk =   0.5000000
        k(    4) = (   0.0000000  -0.5000000  -0.4938272), wk =   0.5000000
        k(    5) = (  -0.5000000  -0.5000000   0.0000000), wk =   0.2500000
        k(    6) = (  -0.5000000  -0.5000000  -0.4938272), wk =   0.2500000

                       cryst. coord.
        k(    1) = (   0.0000000   0.0000000   0.0000000), wk =   0.2500000
        k(    2) = (   0.0000000   0.0000000  -0.5000000), wk =   0.2500000
        k(    3) = (   0.0000000  -0.5000000   0.0000000), wk =   0.5000000
        k(    4) = (   0.0000000  -0.5000000  -0.5000000), wk =   0.5000000
        k(    5) = (  -0.5000000  -0.5000000   0.0000000), wk =   0.2500000
        k(    6) = (  -0.5000000  -0.5000000  -0.5000000), wk =   0.2500000

     Dense  grid:    42307 G-vectors     FFT dimensions: (  45,  45,  45)

     Smooth grid:    14963 G-vectors     FFT dimensions: (  32,  32,  32)

     Largest allocated arrays     est. size (Mb)     dimensions
        Kohn-Sham Wavefunctions         0.10 Mb     (     316,   20)
        NL pseudopotentials             0.40 Mb     (     316,   82)
        Each V/rho on FFT grid          0.25 Mb     (   16200)
        Each G-vector array             0.05 Mb     (    7053)
        G-vector shells                 0.02 Mb     (    2007)
     Largest temporary arrays     est. size (Mb)     dimensions
        Auxiliary wavefunctions         0.39 Mb     (     316,   80)
        Each subspace H/S matrix        0.10 Mb     (      80,   80)
        Each <psi_i|beta_j> matrix      0.03 Mb     (      82,   20)
        Arrays for rho mixing           1.98 Mb     (   16200,    8)

     Check: negative/imaginary core charge=   -0.000013    0.000000

     Initial potential from superposition of free atoms
     Check: negative starting charge=   -0.107606

     starting charge   38.98495, renormalised to   40.00000

     negative rho (up, down):  1.104E-01 0.000E+00
     Starting wfc are   35 randomized atomic wfcs

     total cpu time spent up to now is        0.9 secs

     per-process dynamical memory:    17.5 Mb

     Self-consistent Calculation

     iteration #  1     ecut=    40.00 Ry     beta=0.70
     Davidson diagonalization with overlap
     ethr =  1.00E-02,  avg # of iterations =  1.8

     negative rho (up, down):  1.039E-01 0.000E+00

     total cpu time spent up to now is        1.3 secs

     total energy              =    -285.68564592 Ry
     Harris-Foulkes estimate   =    -286.43641644 Ry
     estimated scf accuracy    <       0.95246503 Ry

     iteration #  2     ecut=    40.00 Ry     beta=0.70
     Davidson diagonalization with overlap
     ethr =  2.38E-03,  avg # of iterations =  5.7

     negative rho (up, down):  1.009E-01 0.000E+00

     total cpu time spent up to now is        1.8 secs

     total energy              =    -283.83012310 Ry
     Harris-Foulkes estimate   =    -287.57075944 Ry
     estimated scf accuracy    <      17.20009314 Ry

     iteration #  3     ecut=    40.00 Ry     beta=0.70
     Davidson diagonalization with overlap
     ethr =  2.38E-03,  avg # of iterations =  5.5

     negative rho (up, down):  9.972E-02 0.000E+00

     total cpu time spent up to now is        2.3 secs

     total energy              =    -285.66838787 Ry
     Harris-Foulkes estimate   =    -285.74057968 Ry
     estimated scf accuracy    <       0.30041525 Ry

     iteration #  4     ecut=    40.00 Ry     beta=0.70
     Davidson diagonalization with overlap
     ethr =  7.51E-04,  avg # of iterations =  3.3

     negative rho (up, down):  9.936E-02 0.000E+00

     total cpu time spent up to now is        2.7 secs

     total energy              =    -286.08881157 Ry
     Harris-Foulkes estimate   =    -286.10597755 Ry
     estimated scf accuracy    <       0.08048042 Ry

     iteration #  5     ecut=    40.00 Ry     beta=0.70
     Davidson diagonalization with overlap
     ethr =  2.01E-04,  avg # of iterations =  2.2

     negative rho (up, down):  9.912E-02 0.000E+00

     total cpu time spent up to now is        3.1 secs

     total energy              =    -286.08048059 Ry
     Harris-Foulkes estimate   =    -286.09358789 Ry
     estimated scf accuracy    <       0.04654318 Ry

     iteration #  6     ecut=    40.00 Ry     beta=0.70
     Davidson diagonalization with overlap
     ethr =  1.16E-04,  avg # of iterations =  2.7

     negative rho (up, down):  9.920E-02 0.000E+00

     total cpu time spent up to now is        3.6 secs

     total energy              =    -286.08274122 Ry
     Harris-Foulkes estimate   =    -286.08535039 Ry
     estimated scf accuracy    <       0.00611017 Ry

     iteration #  7     ecut=    40.00 Ry     beta=0.70
     Davidson diagonalization with overlap
     ethr =  1.53E-05,  avg # of iterations =  3.3

     negative rho (up, down):  9.933E-02 0.000E+00

     total cpu time spent up to now is        4.0 secs

     total energy              =    -286.08377193 Ry
     Harris-Foulkes estimate   =    -286.08391640 Ry
     estimated scf accuracy    <       0.00034096 Ry

     iteration #  8     ecut=    40.00 Ry     beta=0.70
     Davidson diagonalization with overlap
     ethr =  8.52E-07,  avg # of iterations =  4.7

     negative rho (up, down):  9.934E-02 0.000E+00

     total cpu time spent up to now is        4.5 secs

     total energy              =    -286.17920542 Ry
     Harris-Foulkes estimate   =    -286.17947382 Ry
     estimated scf accuracy    <       0.02584603 Ry

     iteration #  9     ecut=    40.00 Ry     beta=0.70
     Davidson diagonalization with overlap
     ethr =  8.52E-07,  avg # of iterations =  1.3

     negative rho (up, down):  9.941E-02 0.000E+00

     total cpu time spent up to now is        4.9 secs

     total energy              =    -286.17705365 Ry
     Harris-Foulkes estimate   =    -286.17921205 Ry
     estimated scf accuracy    <       0.02513166 Ry

     iteration # 10     ecut=    40.00 Ry     beta=0.70
     Davidson diagonalization with overlap
     ethr =  8.52E-07,  avg # of iterations =  4.2

     negative rho (up, down):  9.943E-02 0.000E+00

     total cpu time spent up to now is        5.3 secs

     total energy              =    -286.25724541 Ry
     Harris-Foulkes estimate   =    -286.25879858 Ry
     estimated scf accuracy    <       0.08577682 Ry

     iteration # 11     ecut=    40.00 Ry     beta=0.70
     Davidson diagonalization with overlap
     ethr =  8.52E-07,  avg # of iterations =  2.7

     negative rho (up, down):  9.946E-02 0.000E+00

     total cpu time spent up to now is        5.7 secs

     total energy              =    -286.25661715 Ry
     Harris-Foulkes estimate   =    -286.25727241 Ry
     estimated scf accuracy    <       0.08095408 Ry

     iteration # 12     ecut=    40.00 Ry     beta=0.70
     Davidson diagonalization with overlap
     ethr =  8.52E-07,  avg # of iterations =  2.3

     negative rho (up, down):  9.940E-02 0.000E+00

     total cpu time spent up to now is        6.1 secs

     total energy              =    -286.26018771 Ry
     Harris-Foulkes estimate   =    -286.25664194 Ry
     estimated scf accuracy    <       0.07773469 Ry

     iteration # 13     ecut=    40.00 Ry     beta=0.70
     Davidson diagonalization with overlap
     ethr =  8.52E-07,  avg # of iterations =  3.0

     negative rho (up, down):  9.941E-02 0.000E+00

     total cpu time spent up to now is        6.6 secs

     total energy              =    -286.25992314 Ry
     Harris-Foulkes estimate   =    -286.26028213 Ry
     estimated scf accuracy    <       0.09100375 Ry

     iteration # 14     ecut=    40.00 Ry     beta=0.70
     Davidson diagonalization with overlap
     ethr =  8.52E-07,  avg # of iterations =  1.0

     negative rho (up, down):  9.940E-02 0.000E+00

     total cpu time spent up to now is        6.9 secs

     total energy              =    -286.26019290 Ry
     Harris-Foulkes estimate   =    -286.25992417 Ry
     estimated scf accuracy    <       0.09011167 Ry

     iteration # 15     ecut=    40.00 Ry     beta=0.70
     Davidson diagonalization with overlap
     ethr =  8.52E-07,  avg # of iterations =  1.0

     negative rho (up, down):  9.938E-02 0.000E+00

     total cpu time spent up to now is        7.3 secs

     total energy              =    -286.26201752 Ry
     Harris-Foulkes estimate   =    -286.26019339 Ry
     estimated scf accuracy    <       0.09066009 Ry

     iteration # 16     ecut=    40.00 Ry     beta=0.70
     Davidson diagonalization with overlap
     ethr =  8.52E-07,  avg # of iterations =  2.3

     negative rho (up, down):  9.935E-02 0.000E+00

     total cpu time spent up to now is        7.7 secs

     total energy              =    -286.26507607 Ry
     Harris-Foulkes estimate   =    -286.26204082 Ry
     estimated scf accuracy    <       0.09746520 Ry

     iteration # 17     ecut=    40.00 Ry     beta=0.70
     Davidson diagonalization with overlap
     ethr =  8.52E-07,  avg # of iterations =  2.8

     negative rho (up, down):  9.936E-02 0.000E+00

     total cpu time spent up to now is        8.2 secs

     total energy              =    -286.26391107 Ry
     Harris-Foulkes estimate   =    -286.26514759 Ry
     estimated scf accuracy    <       0.11008191 Ry

     iteration # 18     ecut=    40.00 Ry     beta=0.70
     Davidson diagonalization with overlap
     ethr =  8.52E-07,  avg # of iterations =  1.0

     negative rho (up, down):  1.001E-01 0.000E+00

     total cpu time spent up to now is        8.5 secs

     total energy              =    -286.20949169 Ry
     Harris-Foulkes estimate   =    -286.26391621 Ry
     estimated scf accuracy    <       0.10697170 Ry

     iteration # 19     ecut=    40.00 Ry     beta=0.70
     Davidson diagonalization with overlap
     ethr =  8.52E-07,  avg # of iterations =  5.5

     negative rho (up, down):  1.000E-01 0.000E+00

     total cpu time spent up to now is        9.1 secs

     total energy              =    -286.23850456 Ry
     Harris-Foulkes estimate   =    -286.24123820 Ry
     estimated scf accuracy    <       0.02187675 Ry

     iteration # 20     ecut=    40.00 Ry     beta=0.70
     Davidson diagonalization with overlap
     ethr =  8.52E-07,  avg # of iterations =  3.7

     negative rho (up, down):  1.000E-01 0.000E+00

     total cpu time spent up to now is        9.5 secs

     total energy              =    -286.23690912 Ry
     Harris-Foulkes estimate   =    -286.23891831 Ry
     estimated scf accuracy    <       0.00895113 Ry

     iteration # 21     ecut=    40.00 Ry     beta=0.70
     Davidson diagonalization with overlap
     ethr =  8.52E-07,  avg # of iterations =  3.8

     negative rho (up, down):  1.000E-01 0.000E+00

     total cpu time spent up to now is       10.0 secs

     total energy              =    -286.23707462 Ry
     Harris-Foulkes estimate   =    -286.23747741 Ry
     estimated scf accuracy    <       0.00102992 Ry

     iteration # 22     ecut=    40.00 Ry     beta=0.70
     Davidson diagonalization with overlap
     ethr =  8.52E-07,  avg # of iterations =  3.7

     negative rho (up, down):  1.000E-01 0.000E+00

     total cpu time spent up to now is       10.4 secs

     total energy              =    -286.23728214 Ry
     Harris-Foulkes estimate   =    -286.23729094 Ry
     estimated scf accuracy    <       0.00004333 Ry

     iteration # 23     ecut=    40.00 Ry     beta=0.70
     Davidson diagonalization with overlap
     ethr =  1.08E-07,  avg # of iterations =  1.8

     negative rho (up, down):  1.000E-01 0.000E+00

     total cpu time spent up to now is       10.8 secs

     total energy              =    -286.23727902 Ry
     Harris-Foulkes estimate   =    -286.23728468 Ry
     estimated scf accuracy    <       0.00001519 Ry

     iteration # 24     ecut=    40.00 Ry     beta=0.70
     Davidson diagonalization with overlap
     ethr =  3.80E-08,  avg # of iterations =  3.5

     negative rho (up, down):  1.000E-01 0.000E+00

     total cpu time spent up to now is       11.2 secs

     total energy              =    -286.23728390 Ry
     Harris-Foulkes estimate   =    -286.23728300 Ry
     estimated scf accuracy    <       0.00000124 Ry

     iteration # 25     ecut=    40.00 Ry     beta=0.70
     Davidson diagonalization with overlap
     ethr =  3.09E-09,  avg # of iterations =  3.8

     negative rho (up, down):  1.000E-01 0.000E+00

     total cpu time spent up to now is       11.7 secs

     total energy              =    -286.23728231 Ry
     Harris-Foulkes estimate   =    -286.23728471 Ry
     estimated scf accuracy    <       0.00000989 Ry

     iteration # 26     ecut=    40.00 Ry     beta=0.70
     Davidson diagonalization with overlap
     ethr =  3.09E-09,  avg # of iterations =  3.2

     negative rho (up, down):  1.000E-01 0.000E+00

     total cpu time spent up to now is       12.1 secs

     total energy              =    -286.23728260 Ry
     Harris-Foulkes estimate   =    -286.23728298 Ry
     estimated scf accuracy    <       0.00000125 Ry

     iteration # 27     ecut=    40.00 Ry     beta=0.70
     Davidson diagonalization with overlap
     ethr =  3.09E-09,  avg # of iterations =  2.7

     negative rho (up, down):  1.000E-01 0.000E+00

     total cpu time spent up to now is       12.5 secs

     total energy              =    -286.23728277 Ry
     Harris-Foulkes estimate   =    -286.23728277 Ry
     estimated scf accuracy    <          8.3E-09 Ry

     iteration # 28     ecut=    40.00 Ry     beta=0.70
     Davidson diagonalization with overlap
     ethr =  2.07E-11,  avg # of iterations =  3.8

     negative rho (up, down):  1.000E-01 0.000E+00

     total cpu time spent up to now is       13.0 secs

     total energy              =    -286.23728277 Ry
     Harris-Foulkes estimate   =    -286.23728277 Ry
     estimated scf accuracy    <          1.3E-09 Ry

     iteration # 29     ecut=    40.00 Ry     beta=0.70
     Davidson diagonalization with overlap
     ethr =  3.15E-12,  avg # of iterations =  1.8

     negative rho (up, down):  1.000E-01 0.000E+00

     total cpu time spent up to now is       13.4 secs

     total energy              =    -286.23728277 Ry
     Harris-Foulkes estimate   =    -286.23728277 Ry
     estimated scf accuracy    <          5.6E-10 Ry

     iteration # 30     ecut=    40.00 Ry     beta=0.70
     Davidson diagonalization with overlap
     ethr =  1.40E-12,  avg # of iterations =  3.0

     negative rho (up, down):  1.000E-01 0.000E+00

     total cpu time spent up to now is       13.8 secs

     End of self-consistent calculation

          k = 0.0000 0.0000 0.0000 (  1871 PWs)   bands (ev):

   -46.7762 -22.9707 -22.9707 -22.9678 -14.4150  -6.4679  -5.8023  -5.7480
     0.3684   0.4092   0.4092   8.0175   8.0405   8.0405   9.2356   9.2761
     9.2761  10.2118  10.2258  10.2258

     occupation numbers 
     1.0000   1.0000   1.0000   1.0000   1.0000   1.0000   1.0000   1.0000
     1.0000   1.0000   1.0000   1.0000   1.0000   1.0000   1.0000   1.0000
     1.0000   1.0000   1.0000   1.0000

          k = 0.0000 0.0000-0.4938 (  1856 PWs)   bands (ev):

   -46.7757 -23.0075 -22.9690 -22.9690 -14.3076  -6.7084  -5.7683  -5.4693
     0.5634   0.5634   0.8050   6.3907   7.5935   7.5935   8.3982   8.4842
     8.5587   8.5587   9.6662   9.6662

     occupation numbers 
     1.0000   1.0000   1.0000   1.0000   1.0000   1.0000   1.0000   1.0000
     1.0000   1.0000   1.0000   1.0000   1.0000   1.0000   1.0000   1.0000
     1.0000   1.0000   1.0000   1.0000

          k = 0.0000-0.5000 0.0000 (  1868 PWs)   bands (ev):

   -46.7756 -23.0171 -22.9687 -22.9657 -14.2980  -6.6641  -5.7251  -5.5104
     0.5388   0.5806   0.7990   6.2508   7.5520   7.6259   8.4275   8.4297
     8.4349   8.4831   9.6418   9.6588

     occupation numbers 
     1.0000   1.0000   1.0000   1.0000   1.0000   1.0000   1.0000   1.0000
     1.0000   1.0000   1.0000   1.0000   1.0000   1.0000   1.0000   1.0000
     1.0000   1.0000   1.0000   1.0000

          k = 0.0000-0.5000-0.4938 (  1880 PWs)   bands (ev):

   -46.7751 -23.0144 -23.0044 -22.9671 -14.2294  -6.1300  -5.7371  -5.7156
     0.3776   0.3839   0.7716   6.0165   6.3344   6.4585   7.6499   7.7151
     8.6148   9.4535   9.4595  10.2769

     occupation numbers 
     1.0000   1.0000   1.0000   1.0000   1.0000   1.0000   1.0000   1.0000
     1.0000   1.0000   1.0000   1.0000   1.0000   1.0000   1.0000   1.0000
     1.0000   1.0000   1.0000   1.0000

          k =-0.5000-0.5000 0.0000 (  1868 PWs)   bands (ev):

   -46.7750 -23.0140 -23.0140 -22.9638 -14.2215  -6.0367  -5.7308  -5.7308
     0.3324   0.3324   0.7472   5.9841   6.2579   6.3690   7.6019   7.6019
     8.6156   9.5534   9.5534  10.3198

     occupation numbers 
     1.0000   1.0000   1.0000   1.0000   1.0000   1.0000   1.0000   1.0000
     1.0000   1.0000   1.0000   1.0000   1.0000   1.0000   1.0000   1.0000
     1.0000   1.0000   1.0000   1.0000

          k =-0.5000-0.5000-0.4938 (  1872 PWs)   bands (ev):

   -46.7745 -23.0119 -23.0119 -23.0021 -14.1626  -5.5675  -5.5675  -5.5339
    -0.3141  -0.3141  -0.2706   5.8504   6.3834   6.4982   7.8213   7.9348
     7.9348  10.3475  10.3475  10.3784

     occupation numbers 
     1.0000   1.0000   1.0000   1.0000   1.0000   1.0000   1.0000   1.0000
     1.0000   1.0000   1.0000   1.0000   1.0000   1.0000   1.0000   1.0000
     1.0000   1.0000   1.0000   1.0000

     highest occupied level (ev):    10.3784

!    total energy              =    -286.23728277 Ry
     Harris-Foulkes estimate   =    -286.23728277 Ry
     estimated scf accuracy    <          3.1E-12 Ry

     The total energy is the sum of the following terms:

     one-electron contribution =     -72.68681529 Ry
     hartree contribution      =      60.12747749 Ry
     xc contribution           =     -67.08254167 Ry
     ewald contribution        =    -206.59540330 Ry

     convergence has been achieved in  30 iterations

     Forces acting on atoms (Ry/au):


     negative rho (up, down):  1.000E-01 0.000E+00
     atom    1 type  1   force =     0.00000000    0.00000000    0.00000000
     atom    2 type  3   force =     0.00000000    0.00000000    0.00000000
     atom    3 type  2   force =     0.00000000    0.00000000    0.00000000
     atom    4 type  2   force =     0.00000000    0.00000000    0.00000000
     atom    5 type  2   force =     0.00000000    0.00000000    0.00000000
     The non-local contrib.  to forces
     atom    1 type  1   force =     0.00000000    0.00000000    0.00000000
     atom    2 type  3   force =     0.00000000    0.00000000    0.00000000
     atom    3 type  2   force =     0.00000000    0.00000000    0.00000000
     atom    4 type  2   force =     0.00000000    0.00000000    0.00000000
     atom    5 type  2   force =     0.00000000    0.00000000    0.00000000
     The ionic contribution  to forces
     atom    1 type  1   force =    -0.00000000   -0.00000000   -0.00000203
     atom    2 type  3   force =     0.00000000    0.00000000    0.00002481
     atom    3 type  2   force =     0.00000000    0.00000000   -0.00004070
     atom    4 type  2   force =     0.00000000   -0.00000000    0.00000896
     atom    5 type  2   force =    -0.00000000    0.00000000    0.00000896
     The local contribution  to forces
     atom    1 type  1   force =    -0.00000000   -0.00000000   -0.00000000
     atom    2 type  3   force =     0.00000000    0.00000000    0.00013786
     atom    3 type  2   force =     0.00000000    0.00000000   -0.00005512
     atom    4 type  2   force =    -0.00000000   -0.00000000   -0.00003898
     atom    5 type  2   force =    -0.00000000    0.00000000   -0.00003898
     The core correction contribution to forces
     atom    1 type  1   force =    -0.00000000    0.00000000    0.00000000
     atom    2 type  3   force =    -0.00000000   -0.00000000   -0.00000324
     atom    3 type  2   force =    -0.00000000   -0.00000000   -0.00000017
     atom    4 type  2   force =    -0.00000000   -0.00000000   -0.00000008
     atom    5 type  2   force =    -0.00000000   -0.00000000   -0.00000008
     The Hubbard contrib.    to forces
     atom    1 type  1   force =     0.00000000    0.00000000    0.00000000
     atom    2 type  3   force =     0.00000000    0.00000000    0.00000000
     atom    3 type  2   force =     0.00000000    0.00000000    0.00000000
     atom    4 type  2   force =     0.00000000    0.00000000    0.00000000
     atom    5 type  2   force =     0.00000000    0.00000000    0.00000000
     The SCF correction term to forces
     atom    1 type  1   force =     0.00000000    0.00000000    0.00000000
     atom    2 type  3   force =     0.00000000    0.00000000   -0.00000000
     atom    3 type  2   force =     0.00000000    0.00000000    0.00000000
     atom    4 type  2   force =    -0.00000000    0.00000000    0.00000000
     atom    5 type  2   force =    -0.00000000   -0.00000000    0.00000000

     Total force =     0.000000     Total SCF correction =     0.000000


     entering subroutine stress ...


     negative rho (up, down):  1.000E-01 0.000E+00
          total   stress  (Ry/bohr**3)                   (kbar)     P=   37.58
   0.00031000   0.00000000   0.00000000         45.60      0.00      0.00
   0.00000000   0.00031000   0.00000000          0.00     45.60      0.00
   0.00000000   0.00000000   0.00014647          0.00      0.00     21.55

     kinetic stress (kbar)  18321.14      0.00      0.00
                                0.00  18321.14      0.00
                                0.00      0.00  18292.50

     local   stress (kbar)   -776.65      0.00      0.00
                                0.00   -776.65     -0.00
                                0.00     -0.00    135.27

     nonloc. stress (kbar)   4144.98      0.00      0.00
                                0.00   4144.98      0.00
                                0.00      0.00   4141.92

     hartree stress (kbar)   6851.67      0.00     -0.00
                                0.00   6851.67     -0.00
                               -0.00     -0.00   6523.55

     exc-cor stress (kbar)   2742.03      0.00      0.00
                                0.00   2742.03      0.00
                                0.00      0.00   2740.46

     corecor stress (kbar)  -8262.91     -0.00      0.00
                               -0.00  -8262.91      0.00
                                0.00      0.00  -8262.76

     ewald   stress (kbar) -22974.65     -0.00      0.00
                               -0.00 -22974.65      0.00
                                0.00      0.00 -23549.40

     hubbard stress (kbar)      0.00      0.00      0.00
                                0.00      0.00      0.00
                                0.00      0.00      0.00

     london  stress (kbar)      0.00      0.00      0.00
                                0.00      0.00      0.00
                                0.00      0.00      0.00

     XDM     stress (kbar)      0.00      0.00      0.00
                                0.00      0.00      0.00
                                0.00      0.00      0.00

     dft-nl  stress (kbar)      0.00      0.00      0.00
                                0.00      0.00      0.00
                                0.00      0.00      0.00



     Writing output data file aiida.save
 
     init_run     :      0.72s CPU      0.79s WALL (       1 calls)
     electrons    :     11.30s CPU     12.95s WALL (       1 calls)
     forces       :      0.32s CPU      0.34s WALL (       1 calls)
     stress       :      0.84s CPU      0.92s WALL (       1 calls)

     Called by init_run:
     wfcinit      :      0.06s CPU      0.07s WALL (       1 calls)
     potinit      :      0.07s CPU      0.07s WALL (       1 calls)

     Called by electrons:
     c_bands      :      4.08s CPU      4.17s WALL (      30 calls)
     sum_band     :      4.21s CPU      4.99s WALL (      30 calls)
     v_of_rho     :      0.39s CPU      0.39s WALL (      31 calls)
     v_h          :      0.01s CPU      0.02s WALL (      31 calls)
     v_xc         :      0.40s CPU      0.40s WALL (      33 calls)
     newd         :      2.62s CPU      3.42s WALL (      31 calls)
     mix_rho      :      0.05s CPU      0.07s WALL (      30 calls)

     Called by c_bands:
     init_us_2    :      0.14s CPU      0.12s WALL (     378 calls)
     cegterg      :      3.44s CPU      3.56s WALL (     180 calls)

     Called by sum_band:
     sum_band:bec :      0.00s CPU      0.01s WALL (     180 calls)
     addusdens    :      3.59s CPU      4.39s WALL (      30 calls)

     Called by *egterg:
     h_psi        :      2.10s CPU      2.16s WALL (     733 calls)
     s_psi        :      0.18s CPU      0.18s WALL (     733 calls)
     g_psi        :      0.01s CPU      0.03s WALL (     547 calls)
     cdiaghg      :      0.75s CPU      0.79s WALL (     727 calls)
     cegterg:over :      0.16s CPU      0.17s WALL (     547 calls)
     cegterg:upda :      0.06s CPU      0.09s WALL (     547 calls)
     cegterg:last :      0.04s CPU      0.05s WALL (     185 calls)

     Called by h_psi:
     h_psi:vloc   :      1.76s CPU      1.76s WALL (     733 calls)
     h_psi:vnl    :      0.32s CPU      0.39s WALL (     733 calls)
     add_vuspsi   :      0.16s CPU      0.18s WALL (     733 calls)

     General routines
     calbec       :      0.28s CPU      0.31s WALL (     943 calls)
     fft          :      0.36s CPU      0.35s WALL (     517 calls)
     ffts         :      0.01s CPU      0.01s WALL (      61 calls)
     fftw         :      1.72s CPU      1.78s WALL (   22840 calls)
     interpolate  :      0.08s CPU      0.05s WALL (      61 calls)
 
     Parallel routines
     fft_scatter  :      0.91s CPU      0.92s WALL (   23418 calls)
 
     PWSCF        :    13.38s CPU        15.20s WALL

 
   This run was terminated on:  14:45:28  28Jul2015            

=------------------------------------------------------------------------------=
   JOB DONE.
=------------------------------------------------------------------------------=
